
     Program PWSCF v.6.1 (svn rev. 13369) starts on 30Sep2020 at 22:14:27 

     This program is part of the open-source Quantum ESPRESSO suite
     for quantum simulation of materials; please cite
         "P. Giannozzi et al., J. Phys.:Condens. Matter 21 395502 (2009);
          URL http://www.quantum-espresso.org", 
     in publications or presentations arising from this work. More details at
     http://www.quantum-espresso.org/quote

     Parallel version (MPI), running on    48 processors
     K-points division:     npool     =       3
     R & G space division:  proc/nbgrp/npool/nimage =      16
     Reading input from scf.in
Warning: card &IONS ignored
Warning: card / ignored

     Current dimensions of program PWSCF are:
     Max number of different atomic species (ntypx) = 10
     Max number of k-points (npk) =  40000
     Max angular momentum in pseudopotentials (lmaxx) =  3

     Subspace diagonalization in iterative solution of the eigenvalue problem:
     a serial algorithm will be used

 
     Parallelization info
     --------------------
     sticks:   dense  smooth     PW     G-vecs:    dense   smooth      PW
     Min         246     246     66                19922    19922    2764
     Max         247     247     68                19927    19927    2767
     Sum        3949    3949   1069               318817   318817   44235
 


     bravais-lattice index     =            4
     lattice parameter (alat)  =      18.9482  a.u.
     unit-cell volume          =    9327.9837 (a.u.)^3
     number of atoms/cell      =           32
     number of atomic types    =            3
     number of electrons       =       129.00
     number of Kohn-Sham states=           78
     kinetic-energy cutoff     =      40.0000  Ry
     charge density cutoff     =     160.0000  Ry
     convergence threshold     =      1.0E-08
     mixing beta               =       0.7000
     number of iterations used =            8  plain     mixing
     Exchange-correlation      = PBE ( 1  4  3  4 0 0)

     celldm(1)=  18.948209  celldm(2)=   0.000000  celldm(3)=   1.583261
     celldm(4)=   0.000000  celldm(5)=   0.000000  celldm(6)=   0.000000

     crystal axes: (cart. coord. in units of alat)
               a(1) = (   1.000000   0.000000   0.000000 )  
               a(2) = (  -0.500000   0.866025   0.000000 )  
               a(3) = (   0.000000   0.000000   1.583261 )  

     reciprocal axes: (cart. coord. in units 2 pi/alat)
               b(1) = (  1.000000  0.577350  0.000000 )  
               b(2) = (  0.000000  1.154701  0.000000 )  
               b(3) = (  0.000000  0.000000  0.631608 )  


     PseudoPot. # 1 for B  read from file:
     /export/data/share/tjsmart/Pseudo/B_ONCV_PBE-1.0.upf
     MD5 check sum: a9fd2462c33df863cd3ce8a66ea40380
     Pseudo is Norm-conserving, Zval =  3.0
     Generated using ONCVPSP code by D. R. Hamann
     Using radial grid of 1534 points,  4 beta functions with: 
                l(1) =   0
                l(2) =   0
                l(3) =   1
                l(4) =   1

     PseudoPot. # 2 for N  read from file:
     /export/data/share/tjsmart/Pseudo/N_ONCV_PBE-1.0.upf
     MD5 check sum: 09890da6b2972017450f7114a6086fad
     Pseudo is Norm-conserving, Zval =  5.0
     Generated using ONCVPSP code by D. R. Hamann
     Using radial grid of 1058 points,  4 beta functions with: 
                l(1) =   0
                l(2) =   0
                l(3) =   1
                l(4) =   1

     PseudoPot. # 3 for C  read from file:
     /export/data/share/tjsmart/Pseudo/C_ONCV_PBE-1.0.upf
     MD5 check sum: 72b63e32b2fd29504de26a4901699f60
     Pseudo is Norm-conserving, Zval =  4.0
     Generated using ONCVPSP code by D. R. Hamann
     Using radial grid of 1248 points,  4 beta functions with: 
                l(1) =   0
                l(2) =   0
                l(3) =   1
                l(4) =   1

     atomic species   valence    mass     pseudopotential
        B              3.00    10.81100     B ( 1.00)
        N              5.00    14.00670     N ( 1.00)
        C              4.00    12.01070     C ( 1.00)

     Starting magnetic structure 
     atomic species   magnetization
        B            0.200
        N            0.200
        C            0.200

     12 Sym. Ops. (no inversion) found (10 have fractional translation)


                                    s                        frac. trans.

      isym =  1     identity                                     

 cryst.   s( 1) = (     1          0          0      )
                  (     0          1          0      )
                  (     0          0          1      )

 cart.    s( 1) = (  1.0000000  0.0000000  0.0000000 )
                  (  0.0000000  1.0000000  0.0000000 )
                  (  0.0000000  0.0000000  1.0000000 )


      isym =  2     180 deg rotation - cart. axis [0,1,0]        

 cryst.   s( 2) = (    -1          0          0      )    f =( -0.2500000 )
                  (     1          1          0      )       (  0.0000000 )
                  (     0          0         -1      )       (  0.0000000 )

 cart.    s( 2) = ( -1.0000000  0.0000000  0.0000000 )    f =( -0.2500000 )
                  (  0.0000000  1.0000000  0.0000000 )       (  0.0000000 )
                  (  0.0000000  0.0000000 -1.0000000 )       (  0.0000000 )


      isym =  3     120 deg rotation - cryst. axis [0,0,1]       

 cryst.   s( 3) = (     0          1          0      )    f =(  0.2500000 )
                  (    -1         -1          0      )       (  0.5000000 )
                  (     0          0          1      )       (  0.0000000 )

 cart.    s( 3) = ( -0.5000000 -0.8660254  0.0000000 )    f =(  0.0000000 )
                  (  0.8660254 -0.5000000  0.0000000 )       (  0.4330127 )
                  (  0.0000000  0.0000000  1.0000000 )       (  0.0000000 )


      isym =  4     120 deg rotation - cryst. axis [0,0,-1]      

 cryst.   s( 4) = (    -1         -1          0      )    f =( -0.2500000 )
                  (     1          0          0      )       (  0.2500000 )
                  (     0          0          1      )       (  0.0000000 )

 cart.    s( 4) = ( -0.5000000  0.8660254  0.0000000 )    f =( -0.3750000 )
                  ( -0.8660254 -0.5000000  0.0000000 )       (  0.2165064 )
                  (  0.0000000  0.0000000  1.0000000 )       (  0.0000000 )


      isym =  5     180 deg rotation - cryst. axis [1,-1,0]      

 cryst.   s( 5) = (     0         -1          0      )    f =(  0.2500000 )
                  (    -1          0          0      )       (  0.2500000 )
                  (     0          0         -1      )       (  0.0000000 )

 cart.    s( 5) = (  0.5000000 -0.8660254  0.0000000 )    f =(  0.1250000 )
                  ( -0.8660254 -0.5000000  0.0000000 )       (  0.2165064 )
                  (  0.0000000  0.0000000 -1.0000000 )       (  0.0000000 )


      isym =  6     180 deg rotation - cryst. axis [2,1,0]       

 cryst.   s( 6) = (     1          1          0      )    f =(  0.0000000 )
                  (     0         -1          0      )       (  0.5000000 )
                  (     0          0         -1      )       (  0.0000000 )

 cart.    s( 6) = (  0.5000000  0.8660254  0.0000000 )    f =( -0.2500000 )
                  (  0.8660254 -0.5000000  0.0000000 )       (  0.4330127 )
                  (  0.0000000  0.0000000 -1.0000000 )       (  0.0000000 )


      isym =  7     inv. 180 deg rotation - cart. axis [0,0,1]   

 cryst.   s( 7) = (     1          0          0      )
                  (     0          1          0      )
                  (     0          0         -1      )

 cart.    s( 7) = (  1.0000000  0.0000000  0.0000000 )
                  (  0.0000000  1.0000000  0.0000000 )
                  (  0.0000000  0.0000000 -1.0000000 )


      isym =  8     inv. 180 deg rotation - cart. axis [1,0,0]   

 cryst.   s( 8) = (    -1          0          0      )    f =( -0.2500000 )
                  (     1          1          0      )       (  0.0000000 )
                  (     0          0          1      )       (  0.0000000 )

 cart.    s( 8) = ( -1.0000000  0.0000000  0.0000000 )    f =( -0.2500000 )
                  (  0.0000000  1.0000000  0.0000000 )       (  0.0000000 )
                  (  0.0000000  0.0000000  1.0000000 )       (  0.0000000 )


      isym =  9     inv.  60 deg rotation - cryst. axis [0,0,1]  

 cryst.   s( 9) = (    -1         -1          0      )    f =( -0.2500000 )
                  (     1          0          0      )       (  0.2500000 )
                  (     0          0         -1      )       (  0.0000000 )

 cart.    s( 9) = ( -0.5000000  0.8660254  0.0000000 )    f =( -0.3750000 )
                  ( -0.8660254 -0.5000000  0.0000000 )       (  0.2165064 )
                  (  0.0000000  0.0000000 -1.0000000 )       (  0.0000000 )


      isym = 10     inv.  60 deg rotation - cryst. axis [0,0,-1] 

 cryst.   s(10) = (     0          1          0      )    f =(  0.2500000 )
                  (    -1         -1          0      )       (  0.5000000 )
                  (     0          0         -1      )       (  0.0000000 )

 cart.    s(10) = ( -0.5000000 -0.8660254  0.0000000 )    f =(  0.0000000 )
                  (  0.8660254 -0.5000000  0.0000000 )       (  0.4330127 )
                  (  0.0000000  0.0000000 -1.0000000 )       (  0.0000000 )


      isym = 11     inv. 180 deg rotation - cryst. axis [0,1,0]  

 cryst.   s(11) = (     1          1          0      )    f =(  0.0000000 )
                  (     0         -1          0      )       (  0.5000000 )
                  (     0          0          1      )       (  0.0000000 )

 cart.    s(11) = (  0.5000000  0.8660254  0.0000000 )    f =( -0.2500000 )
                  (  0.8660254 -0.5000000  0.0000000 )       (  0.4330127 )
                  (  0.0000000  0.0000000  1.0000000 )       (  0.0000000 )


      isym = 12     inv. 180 deg rotation - cryst. axis [1,1,0]  

 cryst.   s(12) = (     0         -1          0      )    f =(  0.2500000 )
                  (    -1          0          0      )       (  0.2500000 )
                  (     0          0          1      )       (  0.0000000 )

 cart.    s(12) = (  0.5000000 -0.8660254  0.0000000 )    f =(  0.1250000 )
                  ( -0.8660254 -0.5000000  0.0000000 )       (  0.2165064 )
                  (  0.0000000  0.0000000  1.0000000 )       (  0.0000000 )


     point group D_3h (-62m)
     there are  6 classes
     the character table:

       E     2C3   3C2   s_h   2S3   3s_v 
A'_1   1.00  1.00  1.00  1.00  1.00  1.00
A'_2   1.00  1.00 -1.00  1.00  1.00 -1.00
E'     2.00 -1.00  0.00  2.00 -1.00  0.00
A''1   1.00  1.00  1.00 -1.00 -1.00 -1.00
A''2   1.00  1.00 -1.00 -1.00 -1.00  1.00
E''    2.00 -1.00  0.00 -2.00  1.00  0.00

     the symmetry operations in each class and the name of the first element:

     E        1
          identity                                               
     2C3      3    4
          120 deg rotation - cryst. axis [0,0,1]                 
     3C2      2    6    5
          180 deg rotation - cart. axis [0,1,0]                  
     s_h      7
          inv. 180 deg rotation - cart. axis [0,0,1]             
     2S3      9   10
          inv.  60 deg rotation - cryst. axis [0,0,1]            
     3s_v     8   11   12
          inv. 180 deg rotation - cart. axis [1,0,0]             

   Cartesian axes

     site n.     atom                  positions (alat units)
         1           B   tau(   1) = (   0.0008494   0.1452169   0.0000000  )
         2           N   tau(   2) = (   0.1250000   0.0720954   0.0000000  )
         3           B   tau(   3) = (  -0.1238138   0.3611399   0.0000000  )
         4           N   tau(   4) = (   0.0032505   0.2905518   0.0000000  )
         5           B   tau(   5) = (  -0.2499318   0.5773109   0.0000000  )
         6           N   tau(   6) = (  -0.1250636   0.5052182   0.0000000  )
         7           B   tau(   7) = (  -0.3750000   0.7939353   0.0000000  )
         8           N   tau(   8) = (  -0.2498727   0.7217614   0.0000000  )
         9           B   tau(   9) = (   0.2491506   0.1452169   0.0000000  )
        10           N   tau(  10) = (   0.3746180   0.0729873   0.0000000  )
        11           C   tau(  11) = (   0.1250000   0.3608439   0.0000000  )
        12           N   tau(  12) = (   0.2467495   0.2905518   0.0000000  )
        13           B   tau(  13) = (   0.0003368   0.5761750   0.0000000  )
        14           N   tau(  14) = (   0.1250000   0.5014281   0.0000000  )
        15           B   tau(  15) = (  -0.1249331   0.7938953   0.0000000  )
        16           N   tau(  16) = (   0.0005179   0.7209477   0.0000000  )
        17           B   tau(  17) = (   0.4999409   0.1443717   0.0000000  )
        18           N   tau(  18) = (   0.6250000   0.0721688   0.0000000  )
        19           B   tau(  19) = (   0.3738138   0.3611399   0.0000000  )
        20           N   tau(  20) = (   0.4991001   0.2885967   0.0000000  )
        21           B   tau(  21) = (   0.2496632   0.5761750   0.0000000  )
        22           N   tau(  22) = (   0.3750636   0.5052182   0.0000000  )
        23           B   tau(  23) = (   0.1250000   0.7937883   0.0000000  )
        24           N   tau(  24) = (   0.2494821   0.7209477   0.0000000  )
        25           B   tau(  25) = (   0.7500591   0.1443717   0.0000000  )
        26           N   tau(  26) = (   0.8753820   0.0729873   0.0000000  )
        27           B   tau(  27) = (   0.6250000   0.3607666   0.0000000  )
        28           N   tau(  28) = (   0.7508999   0.2885967   0.0000000  )
        29           B   tau(  29) = (   0.4999318   0.5773109   0.0000000  )
        30           N   tau(  30) = (   0.6250000   0.5050344   0.0000000  )
        31           B   tau(  31) = (   0.3749331   0.7938953   0.0000000  )
        32           N   tau(  32) = (   0.4998727   0.7217614   0.0000000  )

   Crystallographic axes

     site n.     atom                  positions (cryst. coord.)
         1           B   tau(   1) = (  0.0846904  0.1676820  0.0000000  )
         2           N   tau(   2) = (  0.1666243  0.0832486  0.0000000  )
         3           B   tau(   3) = (  0.0846904  0.4170084  0.0000000  )
         4           N   tau(   4) = (  0.1710007  0.3355003  0.0000000  )
         5           B   tau(   5) = (  0.0833788  0.6666212  0.0000000  )
         6           N   tau(   6) = (  0.1666243  0.5833757  0.0000000  )
         7           B   tau(   7) = (  0.0833788  0.9167576  0.0000000  )
         8           N   tau(   8) = (  0.1668365  0.8334182  0.0000000  )
         9           B   tau(   9) = (  0.3329916  0.1676820  0.0000000  )
        10           N   tau(  10) = (  0.4167572  0.0842785  0.0000000  )
        11           C   tau(  11) = (  0.3333333  0.4166667  0.0000000  )
        12           N   tau(  12) = (  0.4144997  0.3355003  0.0000000  )
        13           B   tau(  13) = (  0.3329916  0.6653096  0.0000000  )
        14           N   tau(  14) = (  0.4144997  0.5789993  0.0000000  )
        15           B   tau(  15) = (  0.3334226  0.9167113  0.0000000  )
        16           N   tau(  16) = (  0.4167572  0.8324787  0.0000000  )
        17           B   tau(  17) = (  0.5832939  0.1667061  0.0000000  )
        18           N   tau(  18) = (  0.6666667  0.0833333  0.0000000  )
        19           B   tau(  19) = (  0.5823180  0.4170084  0.0000000  )
        20           N   tau(  20) = (  0.6657215  0.3332428  0.0000000  )
        21           B   tau(  21) = (  0.5823180  0.6653096  0.0000000  )
        22           N   tau(  22) = (  0.6667514  0.5833757  0.0000000  )
        23           B   tau(  23) = (  0.5832939  0.9165878  0.0000000  )
        24           N   tau(  24) = (  0.6657215  0.8324787  0.0000000  )
        25           B   tau(  25) = (  0.8334122  0.1667061  0.0000000  )
        26           N   tau(  26) = (  0.9175213  0.0842785  0.0000000  )
        27           B   tau(  27) = (  0.8332887  0.4165774  0.0000000  )
        28           N   tau(  28) = (  0.9175213  0.3332428  0.0000000  )
        29           B   tau(  29) = (  0.8332424  0.6666212  0.0000000  )
        30           N   tau(  30) = (  0.9165818  0.5831635  0.0000000  )
        31           B   tau(  31) = (  0.8332887  0.9167113  0.0000000  )
        32           N   tau(  32) = (  0.9165818  0.8334182  0.0000000  )

     number of k points=     3  Marzari-Vanderbilt smearing, width (Ry)=  0.0001
                       cart. coord. in units 2pi/alat
        k(    1) = (   0.0000000   0.0000000   0.0000000), wk =   0.1111111
        k(    2) = (   0.0000000   0.3849002   0.0000000), wk =   0.6666667
        k(    3) = (   0.3333333   0.5773503   0.0000000), wk =   0.2222222

                       cryst. coord.
        k(    1) = (   0.0000000   0.0000000   0.0000000), wk =   0.1111111
        k(    2) = (   0.0000000   0.3333333   0.0000000), wk =   0.6666667
        k(    3) = (   0.3333333   0.3333333   0.0000000), wk =   0.2222222

     Dense  grid:   318817 G-vectors     FFT dimensions: (  80,  80, 125)

     Estimated max dynamical RAM per process >      53.89MB

     Estimated total allocated dynamical RAM >    2586.56MB
     Generating pointlists ...
     new r_m :   0.0594 (alat units)  1.1262 (a.u.) for type    1
     new r_m :   0.0580 (alat units)  1.0988 (a.u.) for type    2
     new r_m :   0.0580 (alat units)  1.0988 (a.u.) for type    3

     Initial potential from superposition of free atoms
     Check: negative starting charge=(component1):   -0.008271
     Check: negative starting charge=(component2):   -0.005514

     starting charge  128.99610, renormalised to  129.00000

     negative rho (up, down):  8.271E-03 5.514E-03
     Starting wfc are  128 randomized atomic wfcs

     total cpu time spent up to now is        3.1 secs

     per-process dynamical memory:    82.1 Mb

     Self-consistent Calculation

     iteration #  1     ecut=    40.00 Ry     beta=0.70
     Davidson diagonalization with overlap
     ethr =  1.00E-02,  avg # of iterations =  2.5

     negative rho (up, down):  2.140E-03 1.364E-03

     total cpu time spent up to now is        4.5 secs

     total energy              =    -414.53964159 Ry
     Harris-Foulkes estimate   =    -417.08412417 Ry
     estimated scf accuracy    <       5.16766797 Ry

     total magnetization       =     1.00 Bohr mag/cell
     absolute magnetization    =     2.06 Bohr mag/cell

     iteration #  2     ecut=    40.00 Ry     beta=0.70
     Davidson diagonalization with overlap
     ethr =  4.01E-03,  avg # of iterations = 11.2

     negative rho (up, down):  1.074E-03 6.497E-04

     total cpu time spent up to now is        6.9 secs

     total energy              =    -415.62209736 Ry
     Harris-Foulkes estimate   =    -416.71366963 Ry
     estimated scf accuracy    <       2.14770952 Ry

     total magnetization       =     1.00 Bohr mag/cell
     absolute magnetization    =     1.42 Bohr mag/cell

     iteration #  3     ecut=    40.00 Ry     beta=0.70
     Davidson diagonalization with overlap
     ethr =  1.66E-03,  avg # of iterations =  6.3

     negative rho (up, down):  1.334E-04 6.011E-05

     total cpu time spent up to now is        8.6 secs

     total energy              =    -416.09209804 Ry
     Harris-Foulkes estimate   =    -416.12879752 Ry
     estimated scf accuracy    <       0.10936159 Ry

     total magnetization       =     1.00 Bohr mag/cell
     absolute magnetization    =     1.23 Bohr mag/cell

     iteration #  4     ecut=    40.00 Ry     beta=0.70
     Davidson diagonalization with overlap
     ethr =  8.48E-05,  avg # of iterations = 12.5

     negative rho (up, down):  4.131E-06 5.259E-07

     total cpu time spent up to now is       11.3 secs

     total energy              =    -416.12014279 Ry
     Harris-Foulkes estimate   =    -416.16827091 Ry
     estimated scf accuracy    <       0.12018659 Ry

     total magnetization       =     1.00 Bohr mag/cell
     absolute magnetization    =     1.18 Bohr mag/cell

     iteration #  5     ecut=    40.00 Ry     beta=0.70
     Davidson diagonalization with overlap
     ethr =  8.48E-05,  avg # of iterations =  5.0

     total cpu time spent up to now is       12.7 secs

     total energy              =    -416.13923388 Ry
     Harris-Foulkes estimate   =    -416.13966212 Ry
     estimated scf accuracy    <       0.00230961 Ry

     total magnetization       =     1.00 Bohr mag/cell
     absolute magnetization    =     1.13 Bohr mag/cell

     iteration #  6     ecut=    40.00 Ry     beta=0.70
     Davidson diagonalization with overlap
     ethr =  1.79E-06,  avg # of iterations = 11.2

     total cpu time spent up to now is       15.6 secs

     total energy              =    -416.14023758 Ry
     Harris-Foulkes estimate   =    -416.14038401 Ry
     estimated scf accuracy    <       0.00067380 Ry

     total magnetization       =     1.00 Bohr mag/cell
     absolute magnetization    =     1.11 Bohr mag/cell

     iteration #  7     ecut=    40.00 Ry     beta=0.70
     Davidson diagonalization with overlap
     ethr =  5.22E-07,  avg # of iterations =  8.8

     total cpu time spent up to now is       17.6 secs

     total energy              =    -416.14032684 Ry
     Harris-Foulkes estimate   =    -416.14033683 Ry
     estimated scf accuracy    <       0.00009505 Ry

     total magnetization       =     1.00 Bohr mag/cell
     absolute magnetization    =     1.12 Bohr mag/cell

     iteration #  8     ecut=    40.00 Ry     beta=0.70
     Davidson diagonalization with overlap
     c_bands:  1 eigenvalues not converged
     ethr =  7.37E-08,  avg # of iterations = 11.0

     total cpu time spent up to now is       20.0 secs

     total energy              =    -416.14035921 Ry
     Harris-Foulkes estimate   =    -416.14034748 Ry
     estimated scf accuracy    <       0.00000964 Ry

     total magnetization       =     1.00 Bohr mag/cell
     absolute magnetization    =     1.12 Bohr mag/cell

     iteration #  9     ecut=    40.00 Ry     beta=0.70
     Davidson diagonalization with overlap
     c_bands:  1 eigenvalues not converged
     ethr =  7.47E-09,  avg # of iterations = 10.8

     total cpu time spent up to now is       22.8 secs

     total energy              =    -416.14036827 Ry
     Harris-Foulkes estimate   =    -416.14036830 Ry
     estimated scf accuracy    <       0.00000589 Ry

     total magnetization       =     1.00 Bohr mag/cell
     absolute magnetization    =     1.13 Bohr mag/cell

     iteration # 10     ecut=    40.00 Ry     beta=0.70
     Davidson diagonalization with overlap
     c_bands:  1 eigenvalues not converged
     ethr =  4.56E-09,  avg # of iterations =  8.3

     total cpu time spent up to now is       25.1 secs

     total energy              =    -416.14037046 Ry
     Harris-Foulkes estimate   =    -416.14037063 Ry
     estimated scf accuracy    <       0.00000072 Ry

     total magnetization       =     1.00 Bohr mag/cell
     absolute magnetization    =     1.14 Bohr mag/cell

     iteration # 11     ecut=    40.00 Ry     beta=0.70
     Davidson diagonalization with overlap
     c_bands:  2 eigenvalues not converged
     ethr =  5.57E-10,  avg # of iterations = 11.2

     total cpu time spent up to now is       27.5 secs

     total energy              =    -416.14037064 Ry
     Harris-Foulkes estimate   =    -416.14037062 Ry
     estimated scf accuracy    <       0.00000008 Ry

     total magnetization       =     1.00 Bohr mag/cell
     absolute magnetization    =     1.14 Bohr mag/cell

     iteration # 12     ecut=    40.00 Ry     beta=0.70
     Davidson diagonalization with overlap
     c_bands:  1 eigenvalues not converged
     ethr =  6.58E-11,  avg # of iterations = 10.3

     total cpu time spent up to now is       30.4 secs

     total energy              =    -416.14037068 Ry
     Harris-Foulkes estimate   =    -416.14037067 Ry
     estimated scf accuracy    <       0.00000001 Ry

     total magnetization       =     1.00 Bohr mag/cell
     absolute magnetization    =     1.14 Bohr mag/cell

     iteration # 13     ecut=    40.00 Ry     beta=0.70
     Davidson diagonalization with overlap
     ethr =  8.49E-12,  avg # of iterations = 11.2
 
     Magnetic moment per site:
     atom:    1    charge:    0.8779    magn:    0.0105    constr:    0.0000
     atom:    2    charge:    2.7233    magn:    0.0082    constr:    0.0000
     atom:    3    charge:    0.8779    magn:    0.0105    constr:    0.0000
     atom:    4    charge:    2.6974    magn:    0.0020    constr:    0.0000
     atom:    5    charge:    0.8819    magn:    0.0041    constr:    0.0000
     atom:    6    charge:    2.7233    magn:    0.0082    constr:    0.0000
     atom:    7    charge:    0.8819    magn:    0.0041    constr:    0.0000
     atom:    8    charge:    2.7198    magn:    0.0029    constr:    0.0000
     atom:    9    charge:    0.8779    magn:    0.0105    constr:    0.0000
     atom:   10    charge:    2.7133    magn:   -0.0019    constr:    0.0000
     atom:   11    charge:    1.6072    magn:    0.2420    constr:    0.0000
     atom:   12    charge:    2.6974    magn:    0.0020    constr:    0.0000
     atom:   13    charge:    0.8779    magn:    0.0105    constr:    0.0000
     atom:   14    charge:    2.6974    magn:    0.0020    constr:    0.0000
     atom:   15    charge:    0.8745    magn:    0.0010    constr:    0.0000
     atom:   16    charge:    2.7133    magn:   -0.0019    constr:    0.0000
     atom:   17    charge:    0.8836    magn:    0.0043    constr:    0.0000
     atom:   18    charge:    2.7189    magn:   -0.0008    constr:    0.0000
     atom:   19    charge:    0.8779    magn:    0.0105    constr:    0.0000
     atom:   20    charge:    2.7133    magn:   -0.0019    constr:    0.0000
     atom:   21    charge:    0.8779    magn:    0.0105    constr:    0.0000
     atom:   22    charge:    2.7233    magn:    0.0082    constr:    0.0000
     atom:   23    charge:    0.8836    magn:    0.0043    constr:    0.0000
     atom:   24    charge:    2.7133    magn:   -0.0019    constr:    0.0000
     atom:   25    charge:    0.8836    magn:    0.0043    constr:    0.0000
     atom:   26    charge:    2.7133    magn:   -0.0019    constr:    0.0000
     atom:   27    charge:    0.8745    magn:    0.0010    constr:    0.0000
     atom:   28    charge:    2.7133    magn:   -0.0019    constr:    0.0000
     atom:   29    charge:    0.8819    magn:    0.0041    constr:    0.0000
     atom:   30    charge:    2.7198    magn:    0.0029    constr:    0.0000
     atom:   31    charge:    0.8745    magn:    0.0010    constr:    0.0000
     atom:   32    charge:    2.7198    magn:    0.0029    constr:    0.0000

     total cpu time spent up to now is       33.5 secs

     End of self-consistent calculation

 ------ SPIN UP ------------


          k = 0.0000 0.0000 0.0000 ( 39811 PWs)   bands (ev):

   -22.5426 -21.0931 -20.5659 -20.5659 -20.2983 -20.2983 -20.2805 -19.0883
   -19.0883 -18.8237 -18.5531 -18.5531 -18.5247 -18.4466 -18.4288 -18.4288
   -14.0267 -12.7333 -12.7333 -11.8399 -11.7183 -11.7183 -11.3969 -11.3969
   -11.3256 -10.1810 -10.0439 -10.0439  -9.6547  -9.5634  -9.5634  -9.2509
    -9.0535  -9.0424  -9.0424  -8.8629  -8.8629  -8.8151  -8.0949  -8.0868
    -8.0868  -7.9362  -7.4445  -7.4445  -7.3191  -7.3191  -7.3071  -6.9849
    -6.9849  -6.7087  -6.7087  -6.6815  -6.6319  -5.1804  -5.1486  -5.1486
    -5.0090  -5.0090  -4.7655  -4.7655  -4.7602  -4.5747  -4.5720  -4.5720
    -0.2346   1.0297   1.0687   1.0687   1.5398   1.9769   1.9772   1.9772
     1.9828   2.0781   2.0781   2.2922   2.9736   2.9736

     occupation numbers 
     1.0000   1.0000   1.0000   1.0000   1.0000   1.0000   1.0000   1.0000
     1.0000   1.0000   1.0000   1.0000   1.0000   1.0000   1.0000   1.0000
     1.0000   1.0000   1.0000   1.0000   1.0000   1.0000   1.0000   1.0000
     1.0000   1.0000   1.0000   1.0000   1.0000   1.0000   1.0000   1.0000
     1.0000   1.0000   1.0000   1.0000   1.0000   1.0000   1.0000   1.0000
     1.0000   1.0000   1.0000   1.0000   1.0000   1.0000   1.0000   1.0000
     1.0000   1.0000   1.0000   1.0000   1.0000   1.0000   1.0000   1.0000
     1.0000   1.0000   1.0000   1.0000   1.0000   1.0000   1.0000   1.0000
     1.0000   0.0000   0.0000   0.0000   0.0000   0.0000   0.0000   0.0000
     0.0000   0.0000   0.0000   0.0000   0.0000   0.0000

          k = 0.0000 0.3849 0.0000 ( 39867 PWs)   bands (ev):

   -22.5314 -21.1678 -20.7592 -20.6968 -20.2033 -19.9677 -19.6778 -19.5503
   -19.3692 -18.8932 -18.8625 -18.6989 -18.4807 -18.4482 -18.1901 -18.0860
   -13.9171 -12.5305 -12.4466 -12.0489 -12.0247 -11.8832 -11.7953 -10.9695
   -10.9257 -10.7167 -10.3959 -10.3251  -9.8995  -9.8665  -9.5381  -9.2152
    -9.1458  -8.7742  -8.6190  -8.4435  -8.3972  -8.3661  -8.1489  -8.1207
    -7.8811  -7.8763  -7.7208  -7.5663  -7.4475  -7.3429  -7.1755  -6.9654
    -6.7452  -6.7339  -6.6810  -6.3278  -6.0698  -6.0158  -5.8375  -5.7074
    -5.4007  -5.2042  -4.9094  -4.8739  -4.6240  -4.6170  -4.0683  -3.9870
    -0.2780   1.1737   1.2552   1.2609   1.2983   1.6701   1.7500   1.7947
     1.9260   2.1931   2.5160   2.5779   2.5837   2.8150

     occupation numbers 
     1.0000   1.0000   1.0000   1.0000   1.0000   1.0000   1.0000   1.0000
     1.0000   1.0000   1.0000   1.0000   1.0000   1.0000   1.0000   1.0000
     1.0000   1.0000   1.0000   1.0000   1.0000   1.0000   1.0000   1.0000
     1.0000   1.0000   1.0000   1.0000   1.0000   1.0000   1.0000   1.0000
     1.0000   1.0000   1.0000   1.0000   1.0000   1.0000   1.0000   1.0000
     1.0000   1.0000   1.0000   1.0000   1.0000   1.0000   1.0000   1.0000
     1.0000   1.0000   1.0000   1.0000   1.0000   1.0000   1.0000   1.0000
     1.0000   1.0000   1.0000   1.0000   1.0000   1.0000   1.0000   1.0000
     1.0000   0.0000   0.0000   0.0000   0.0000   0.0000   0.0000   0.0000
     0.0000   0.0000   0.0000   0.0000   0.0000   0.0000

          k = 0.3333 0.5774 0.0000 ( 39873 PWs)   bands (ev):

   -22.5251 -21.0986 -21.0853 -20.3364 -20.1898 -20.1036 -19.5227 -19.3612
   -19.3254 -19.0651 -19.0542 -19.0393 -18.4777 -18.2381 -18.2051 -17.9533
   -13.8846 -12.6102 -12.3064 -12.0492 -11.8883 -11.5500 -11.4268 -11.3792
   -11.3721 -11.3132 -10.9286  -9.8155  -9.7105  -9.6036  -9.2898  -9.2216
    -9.1577  -9.0692  -8.4320  -8.4273  -8.3693  -8.3629  -8.1393  -7.9130
    -7.8983  -7.8754  -7.7606  -7.7331  -7.6741  -7.2011  -6.9236  -6.8915
    -6.7232  -6.6200  -6.5910  -6.0998  -5.9408  -5.8867  -5.7958  -5.7672
    -5.6413  -5.5454  -5.5391  -5.5214  -4.3706  -4.2439  -4.1816  -3.6951
    -0.3624   0.9898   1.1342   1.1421   1.6920   1.7142   1.7246   2.0533
     2.4225   2.5142   2.5381   2.5882   2.5996   2.6162

     occupation numbers 
     1.0000   1.0000   1.0000   1.0000   1.0000   1.0000   1.0000   1.0000
     1.0000   1.0000   1.0000   1.0000   1.0000   1.0000   1.0000   1.0000
     1.0000   1.0000   1.0000   1.0000   1.0000   1.0000   1.0000   1.0000
     1.0000   1.0000   1.0000   1.0000   1.0000   1.0000   1.0000   1.0000
     1.0000   1.0000   1.0000   1.0000   1.0000   1.0000   1.0000   1.0000
     1.0000   1.0000   1.0000   1.0000   1.0000   1.0000   1.0000   1.0000
     1.0000   1.0000   1.0000   1.0000   1.0000   1.0000   1.0000   1.0000
     1.0000   1.0000   1.0000   1.0000   1.0000   1.0000   1.0000   1.0000
     1.0000   0.0000   0.0000   0.0000   0.0000   0.0000   0.0000   0.0000
     0.0000   0.0000   0.0000   0.0000   0.0000   0.0000

 ------ SPIN DOWN ----------


          k = 0.0000 0.0000 0.0000 ( 39811 PWs)   bands (ev):

   -22.3637 -21.0607 -20.5341 -20.5341 -20.2893 -20.2893 -20.2710 -19.0642
   -19.0642 -18.7932 -18.5421 -18.5421 -18.5230 -18.4393 -18.4239 -18.4239
   -13.7934 -12.6997 -12.6997 -11.8006 -11.6849 -11.6849 -11.3858 -11.3858
   -11.3105 -10.1408 -10.0046 -10.0046  -9.6254  -9.5546  -9.5546  -9.0278
    -9.0272  -9.0272  -9.0069  -8.8521  -8.8521  -8.8063  -8.0745  -8.0745
    -7.9310  -7.7697  -7.3627  -7.3627  -7.2878  -7.2878  -7.2761  -6.9733
    -6.9733  -6.7023  -6.7023  -6.6777  -6.6272  -5.1433  -5.1433  -4.9605
    -4.9259  -4.9259  -4.7327  -4.7327  -4.7320  -4.5489  -4.5461  -4.5461
     0.7425   1.0637   1.1821   1.1821   1.7179   2.0082   2.0597   2.0597
     2.1356   2.1590   2.1590   2.3008   3.0058   3.0058

     occupation numbers 
     1.0000   1.0000   1.0000   1.0000   1.0000   1.0000   1.0000   1.0000
     1.0000   1.0000   1.0000   1.0000   1.0000   1.0000   1.0000   1.0000
     1.0000   1.0000   1.0000   1.0000   1.0000   1.0000   1.0000   1.0000
     1.0000   1.0000   1.0000   1.0000   1.0000   1.0000   1.0000   1.0000
     1.0000   1.0000   1.0000   1.0000   1.0000   1.0000   1.0000   1.0000
     1.0000   1.0000   1.0000   1.0000   1.0000   1.0000   1.0000   1.0000
     1.0000   1.0000   1.0000   1.0000   1.0000   1.0000   1.0000   1.0000
     1.0000   1.0000   1.0000   1.0000   1.0000   1.0000   1.0000   1.0000
     0.0000   0.0000   0.0000   0.0000   0.0000   0.0000   0.0000   0.0000
     0.0000   0.0000   0.0000   0.0000   0.0000   0.0000

          k = 0.0000 0.3849 0.0000 ( 39867 PWs)   bands (ev):

   -22.3478 -21.1484 -20.7422 -20.6719 -20.1735 -19.9508 -19.6553 -19.5316
   -19.3509 -18.8841 -18.8522 -18.6755 -18.4745 -18.4432 -18.1807 -18.0794
   -13.6659 -12.4937 -12.3982 -12.0318 -12.0024 -11.8721 -11.7815 -10.9382
   -10.8908 -10.6986 -10.3759 -10.3032  -9.8830  -9.8502  -9.4982  -9.1934
    -8.8499  -8.7583  -8.6028  -8.4281  -8.3536  -8.2718  -8.1401  -8.1070
    -7.8667  -7.7759  -7.6609  -7.5551  -7.4395  -7.3377  -7.1629  -6.8192
    -6.7363  -6.6809  -6.6737  -6.2661  -6.0629  -5.8992  -5.7852  -5.7000
    -5.3955  -5.1484  -4.8165  -4.7959  -4.5994  -4.5885  -4.0210  -3.9582
     0.7420   1.2943   1.3012   1.3451   1.4000   1.7627   1.8631   1.8955
     1.9586   2.2163   2.5247   2.6059   2.6202   2.8390

     occupation numbers 
     1.0000   1.0000   1.0000   1.0000   1.0000   1.0000   1.0000   1.0000
     1.0000   1.0000   1.0000   1.0000   1.0000   1.0000   1.0000   1.0000
     1.0000   1.0000   1.0000   1.0000   1.0000   1.0000   1.0000   1.0000
     1.0000   1.0000   1.0000   1.0000   1.0000   1.0000   1.0000   1.0000
     1.0000   1.0000   1.0000   1.0000   1.0000   1.0000   1.0000   1.0000
     1.0000   1.0000   1.0000   1.0000   1.0000   1.0000   1.0000   1.0000
     1.0000   1.0000   1.0000   1.0000   1.0000   1.0000   1.0000   1.0000
     1.0000   1.0000   1.0000   1.0000   1.0000   1.0000   1.0000   1.0000
     0.0000   0.0000   0.0000   0.0000   0.0000   0.0000   0.0000   0.0000
     0.0000   0.0000   0.0000   0.0000   0.0000   0.0000

          k = 0.3333 0.5774 0.0000 ( 39873 PWs)   bands (ev):

   -22.3390 -21.0840 -21.0689 -20.3082 -20.1601 -20.0821 -19.4918 -19.3409
   -19.3135 -19.0540 -19.0455 -19.0328 -18.4625 -18.2352 -18.1953 -17.9462
   -13.6279 -12.5687 -12.2830 -12.0140 -11.8518 -11.5270 -11.4137 -11.3664
   -11.3552 -11.3014 -10.9099  -9.7826  -9.6724  -9.5698  -9.2742  -9.2096
    -9.1494  -8.6804  -8.4119  -8.4048  -8.3297  -8.3191  -8.1234  -7.9076
    -7.8918  -7.8706  -7.7487  -7.7205  -7.6665  -7.0194  -6.8528  -6.8324
    -6.7149  -6.6118  -6.5761  -6.0884  -5.8821  -5.7918  -5.7719  -5.6691
    -5.5915  -5.5062  -5.5055  -5.4949  -4.3143  -4.1835  -4.1647  -3.6682
     0.6060   1.1350   1.2219   1.2260   1.7347   1.7398   1.7536   2.3489
     2.5298   2.5785   2.6300   2.6329   2.6450   2.6656

     occupation numbers 
     1.0000   1.0000   1.0000   1.0000   1.0000   1.0000   1.0000   1.0000
     1.0000   1.0000   1.0000   1.0000   1.0000   1.0000   1.0000   1.0000
     1.0000   1.0000   1.0000   1.0000   1.0000   1.0000   1.0000   1.0000
     1.0000   1.0000   1.0000   1.0000   1.0000   1.0000   1.0000   1.0000
     1.0000   1.0000   1.0000   1.0000   1.0000   1.0000   1.0000   1.0000
     1.0000   1.0000   1.0000   1.0000   1.0000   1.0000   1.0000   1.0000
     1.0000   1.0000   1.0000   1.0000   1.0000   1.0000   1.0000   1.0000
     1.0000   1.0000   1.0000   1.0000   1.0000   1.0000   1.0000   1.0000
     0.0000   0.0000   0.0000   0.0000   0.0000   0.0000   0.0000   0.0000
     0.0000   0.0000   0.0000   0.0000   0.0000   0.0000

     the Fermi energy is    -0.1857 ev

!    total energy              =    -416.14037069 Ry
     Harris-Foulkes estimate   =    -416.14037069 Ry
     estimated scf accuracy    <          2.5E-09 Ry

     The total energy is the sum of the following terms:

     one-electron contribution =   -2710.97764403 Ry
     hartree contribution      =    1380.81479907 Ry
     xc contribution           =    -118.78741112 Ry
     ewald contribution        =    1032.80988538 Ry
     smearing contrib. (-TS)   =       0.00000000 Ry

     total magnetization       =     1.00 Bohr mag/cell
     absolute magnetization    =     1.14 Bohr mag/cell

     convergence has been achieved in  13 iterations

     Writing output data file BN.save
 
     init_run     :      1.64s CPU      1.87s WALL (       1 calls)
     electrons    :     30.03s CPU     30.45s WALL (       1 calls)

     Called by init_run:
     wfcinit      :      0.48s CPU      0.51s WALL (       1 calls)
     wfcinit:atom :      0.00s CPU      0.01s WALL (       2 calls)
     wfcinit:wfcr :      0.45s CPU      0.47s WALL (       2 calls)
     potinit      :      0.26s CPU      0.28s WALL (       1 calls)

     Called by electrons:
     c_bands      :     27.13s CPU     27.49s WALL (      13 calls)
     sum_band     :      1.54s CPU      1.56s WALL (      13 calls)
     v_of_rho     :      1.04s CPU      1.05s WALL (      14 calls)
     v_h          :      0.03s CPU      0.03s WALL (      14 calls)
     v_xc         :      1.01s CPU      1.02s WALL (      14 calls)
     mix_rho      :      0.19s CPU      0.22s WALL (      13 calls)

     Called by c_bands:
     init_us_2    :      0.22s CPU      0.22s WALL (      54 calls)
     cegterg      :     22.13s CPU     22.44s WALL (      26 calls)

     Called by sum_band:

     Called by *egterg:
     h_psi        :     11.00s CPU     11.06s WALL (     303 calls)
     g_psi        :      0.08s CPU      0.08s WALL (     275 calls)
     cdiaghg      :      6.44s CPU      6.47s WALL (     301 calls)
     cegterg:over :      2.09s CPU      2.10s WALL (     275 calls)
     cegterg:upda :      1.88s CPU      1.88s WALL (     275 calls)
     cegterg:last :      0.38s CPU      0.39s WALL (      27 calls)

     Called by h_psi:
     h_psi:pot    :     10.84s CPU     10.89s WALL (     303 calls)
     h_psi:calbec :      1.64s CPU      1.65s WALL (     303 calls)
     vloc_psi     :      7.49s CPU      7.54s WALL (     303 calls)
     add_vuspsi   :      1.70s CPU      1.71s WALL (     303 calls)

     General routines
     calbec       :      1.64s CPU      1.65s WALL (     303 calls)
     fft          :      0.29s CPU      0.41s WALL (     291 calls)
     fftw         :      7.60s CPU      7.63s WALL (   15904 calls)
 
     Parallel routines
     fft_scatter  :      2.21s CPU      2.18s WALL (   16195 calls)
 
     PWSCF        :    33.12s CPU        35.27s WALL

 
   This run was terminated on:  22:15: 2  30Sep2020            

=------------------------------------------------------------------------------=
   JOB DONE.
=------------------------------------------------------------------------------=
