
     Program PWSCF v.6.1 (svn rev. 13369) starts on 27Jan2020 at 11:25:46 

     This program is part of the open-source Quantum ESPRESSO suite
     for quantum simulation of materials; please cite
         "P. Giannozzi et al., J. Phys.:Condens. Matter 21 395502 (2009);
          URL http://www.quantum-espresso.org", 
     in publications or presentations arising from this work. More details at
     http://www.quantum-espresso.org/quote

     Parallel version (MPI), running on   144 processors
     K-points division:     npool     =       4
     R & G space division:  proc/nbgrp/npool/nimage =      36
     Reading input from vc.in

     Current dimensions of program PWSCF are:
     Max number of different atomic species (ntypx) = 10
     Max number of k-points (npk) =  40000
     Max angular momentum in pseudopotentials (lmaxx) =  3

     Subspace diagonalization in iterative solution of the eigenvalue problem:
     one sub-group per band group will be used
     scalapack distributed-memory algorithm (size of sub-group:  4*  4 procs)

 
     Parallelization info
     --------------------
     sticks:   dense  smooth     PW     G-vecs:    dense   smooth      PW
     Min          91      91     25                 3943     3943     574
     Max          92      92     27                 3946     3946     577
     Sum        3297    3297    917               142009   142009   20719
 


     bravais-lattice index     =            1
     lattice parameter (alat)  =      11.3705  a.u.
     unit-cell volume          =    1470.0654 (a.u.)^3
     number of atoms/cell      =            5
     number of atomic types    =            3
     number of electrons       =        44.00
     number of Kohn-Sham states=           22
     kinetic-energy cutoff     =      80.0000  Ry
     charge density cutoff     =     320.0000  Ry
     convergence threshold     =      1.0E-08
     mixing beta               =       0.7000
     number of iterations used =            8  plain     mixing
     Exchange-correlation      = PBE ( 1  4  3  4 0 0)
     nstep                     =           50


     celldm(1)=  11.370482  celldm(2)=   0.000000  celldm(3)=   0.000000
     celldm(4)=   0.000000  celldm(5)=   0.000000  celldm(6)=   0.000000

     crystal axes: (cart. coord. in units of alat)
               a(1) = (   1.000000   0.000000   0.000000 )  
               a(2) = (   0.000000   1.000000   0.000000 )  
               a(3) = (   0.000000   0.000000   1.000000 )  

     reciprocal axes: (cart. coord. in units 2 pi/alat)
               b(1) = (  1.000000  0.000000  0.000000 )  
               b(2) = (  0.000000  1.000000  0.000000 )  
               b(3) = (  0.000000  0.000000  1.000000 )  


     PseudoPot. # 1 for Cs read from file:
     /g/g13/smart8/Pseudo/Cs_ONCV_PBE-1.0.upf
     MD5 check sum: a07a4fc9ed671038e795e632c4b4133e
     Pseudo is Norm-conserving, Zval =  9.0
     Generated using ONCVPSP code by D. R. Hamann
     Using radial grid of 2414 points,  6 beta functions with: 
                l(1) =   0
                l(2) =   0
                l(3) =   1
                l(4) =   1
                l(5) =   2
                l(6) =   2

     PseudoPot. # 2 for Pb read from file:
     /g/g13/smart8/Pseudo/Pb_ONCV_PBE-1.0.upf
     MD5 check sum: b7aa1c31683a346e58359ee44d753eef
     Pseudo is Norm-conserving, Zval = 14.0
     Generated using ONCVPSP code by D. R. Hamann
     Using radial grid of 1678 points,  8 beta functions with: 
                l(1) =   0
                l(2) =   0
                l(3) =   1
                l(4) =   1
                l(5) =   2
                l(6) =   2
                l(7) =   3
                l(8) =   3

     PseudoPot. # 3 for Br read from file:
     /g/g13/smart8/Pseudo/Br_ONCV_PBE-1.0.upf
     MD5 check sum: 48a224154f4a1c41ec63bbef33790613
     Pseudo is Norm-conserving, Zval =  7.0
     Generated using ONCVPSP code by D. R. Hamann
     Using radial grid of 1098 points,  6 beta functions with: 
                l(1) =   0
                l(2) =   0
                l(3) =   1
                l(4) =   1
                l(5) =   2
                l(6) =   2

     atomic species   valence    mass     pseudopotential
        Cs             9.00     1.00000     Cs( 1.00)
        Pb            14.00     1.00000     Pb( 1.00)
        Br             7.00     1.00000     Br( 1.00)

     48 Sym. Ops., with inversion, found



   Cartesian axes

     site n.     atom                  positions (alat units)
         1           Cs  tau(   1) = (   0.0000000   0.0000000   0.0000000  )
         2           Pb  tau(   2) = (   0.5000000   0.5000000   0.5000000  )
         3           Br  tau(   3) = (   0.0000000   0.5000000   0.5000000  )
         4           Br  tau(   4) = (   0.5000000   0.0000000   0.5000000  )
         5           Br  tau(   5) = (   0.5000000   0.5000000   0.0000000  )

     number of k points=    35
                       cart. coord. in units 2pi/alat
        k(    1) = (   0.0000000   0.0000000   0.0000000), wk =   0.0039062
        k(    2) = (   0.0000000   0.0000000   0.1250000), wk =   0.0234375
        k(    3) = (   0.0000000   0.0000000   0.2500000), wk =   0.0234375
        k(    4) = (   0.0000000   0.0000000   0.3750000), wk =   0.0234375
        k(    5) = (   0.0000000   0.0000000  -0.5000000), wk =   0.0117188
        k(    6) = (   0.0000000   0.1250000   0.1250000), wk =   0.0468750
        k(    7) = (   0.0000000   0.1250000   0.2500000), wk =   0.0937500
        k(    8) = (   0.0000000   0.1250000   0.3750000), wk =   0.0937500
        k(    9) = (   0.0000000   0.1250000  -0.5000000), wk =   0.0468750
        k(   10) = (   0.0000000   0.2500000   0.2500000), wk =   0.0468750
        k(   11) = (   0.0000000   0.2500000   0.3750000), wk =   0.0937500
        k(   12) = (   0.0000000   0.2500000  -0.5000000), wk =   0.0468750
        k(   13) = (   0.0000000   0.3750000   0.3750000), wk =   0.0468750
        k(   14) = (   0.0000000   0.3750000  -0.5000000), wk =   0.0468750
        k(   15) = (   0.0000000  -0.5000000  -0.5000000), wk =   0.0117188
        k(   16) = (   0.1250000   0.1250000   0.1250000), wk =   0.0312500
        k(   17) = (   0.1250000   0.1250000   0.2500000), wk =   0.0937500
        k(   18) = (   0.1250000   0.1250000   0.3750000), wk =   0.0937500
        k(   19) = (   0.1250000   0.1250000  -0.5000000), wk =   0.0468750
        k(   20) = (   0.1250000   0.2500000   0.2500000), wk =   0.0937500
        k(   21) = (   0.1250000   0.2500000   0.3750000), wk =   0.1875000
        k(   22) = (   0.1250000   0.2500000  -0.5000000), wk =   0.0937500
        k(   23) = (   0.1250000   0.3750000   0.3750000), wk =   0.0937500
        k(   24) = (   0.1250000   0.3750000  -0.5000000), wk =   0.0937500
        k(   25) = (   0.1250000  -0.5000000  -0.5000000), wk =   0.0234375
        k(   26) = (   0.2500000   0.2500000   0.2500000), wk =   0.0312500
        k(   27) = (   0.2500000   0.2500000   0.3750000), wk =   0.0937500
        k(   28) = (   0.2500000   0.2500000  -0.5000000), wk =   0.0468750
        k(   29) = (   0.2500000   0.3750000   0.3750000), wk =   0.0937500
        k(   30) = (   0.2500000   0.3750000  -0.5000000), wk =   0.0937500
        k(   31) = (   0.2500000  -0.5000000  -0.5000000), wk =   0.0234375
        k(   32) = (   0.3750000   0.3750000   0.3750000), wk =   0.0312500
        k(   33) = (   0.3750000   0.3750000  -0.5000000), wk =   0.0468750
        k(   34) = (   0.3750000  -0.5000000  -0.5000000), wk =   0.0234375
        k(   35) = (  -0.5000000  -0.5000000  -0.5000000), wk =   0.0039062

     Dense  grid:   142009 G-vectors     FFT dimensions: (  72,  72,  72)

     Estimated max dynamical RAM per process >       5.56MB

     Estimated total allocated dynamical RAM >     800.91MB

     Initial potential from superposition of free atoms

     starting charge   43.95964, renormalised to   44.00000
     Starting wfc are   26 randomized atomic wfcs

     total cpu time spent up to now is        2.1 secs

     per-process dynamical memory:    61.9 Mb

     Self-consistent Calculation

     iteration #  1     ecut=    80.00 Ry     beta=0.70
     Davidson diagonalization with overlap
     ethr =  1.00E-02,  avg # of iterations =  1.0

     Threshold (ethr) on eigenvalues was too large:
     Diagonalizing with lowered threshold

     Davidson diagonalization with overlap
     ethr =  4.05E-04,  avg # of iterations =  1.9

     total cpu time spent up to now is        3.1 secs

     total energy              =    -234.66449626 Ry
     Harris-Foulkes estimate   =    -234.77758657 Ry
     estimated scf accuracy    <       0.16535204 Ry

     iteration #  2     ecut=    80.00 Ry     beta=0.70
     Davidson diagonalization with overlap
     ethr =  3.76E-04,  avg # of iterations =  3.0

     total cpu time spent up to now is        3.9 secs

     total energy              =    -234.71423873 Ry
     Harris-Foulkes estimate   =    -234.74758150 Ry
     estimated scf accuracy    <       0.06157953 Ry

     iteration #  3     ecut=    80.00 Ry     beta=0.70
     Davidson diagonalization with overlap
     ethr =  1.40E-04,  avg # of iterations =  2.9

     total cpu time spent up to now is        4.5 secs

     total energy              =    -234.72798362 Ry
     Harris-Foulkes estimate   =    -234.72779208 Ry
     estimated scf accuracy    <       0.00049931 Ry

     iteration #  4     ecut=    80.00 Ry     beta=0.70
     Davidson diagonalization with overlap
     ethr =  1.13E-06,  avg # of iterations =  4.3

     total cpu time spent up to now is        5.5 secs

     total energy              =    -234.72844381 Ry
     Harris-Foulkes estimate   =    -234.72848580 Ry
     estimated scf accuracy    <       0.00012328 Ry

     iteration #  5     ecut=    80.00 Ry     beta=0.70
     Davidson diagonalization with overlap
     ethr =  2.80E-07,  avg # of iterations =  2.0

     total cpu time spent up to now is        6.3 secs

     total energy              =    -234.72845899 Ry
     Harris-Foulkes estimate   =    -234.72846048 Ry
     estimated scf accuracy    <       0.00001104 Ry

     iteration #  6     ecut=    80.00 Ry     beta=0.70
     Davidson diagonalization with overlap
     ethr =  2.51E-08,  avg # of iterations =  4.3

     total cpu time spent up to now is        7.2 secs

     total energy              =    -234.72846441 Ry
     Harris-Foulkes estimate   =    -234.72846458 Ry
     estimated scf accuracy    <       0.00000071 Ry

     iteration #  7     ecut=    80.00 Ry     beta=0.70
     Davidson diagonalization with overlap
     ethr =  1.61E-09,  avg # of iterations =  2.8

     total cpu time spent up to now is        8.0 secs

     total energy              =    -234.72846462 Ry
     Harris-Foulkes estimate   =    -234.72846463 Ry
     estimated scf accuracy    <       0.00000005 Ry

     iteration #  8     ecut=    80.00 Ry     beta=0.70
     Davidson diagonalization with overlap
     ethr =  1.07E-10,  avg # of iterations =  4.3

     total cpu time spent up to now is        8.9 secs

     total energy              =    -234.72846465 Ry
     Harris-Foulkes estimate   =    -234.72846466 Ry
     estimated scf accuracy    <       0.00000001 Ry

     iteration #  9     ecut=    80.00 Ry     beta=0.70
     Davidson diagonalization with overlap
     ethr =  3.34E-11,  avg # of iterations =  2.7

     total cpu time spent up to now is        9.6 secs

     End of self-consistent calculation

          k = 0.0000 0.0000 0.0000 ( 17773 PWs)   bands (ev):

   -18.1798 -13.6120 -13.6120 -13.5102 -13.5102 -13.5102 -11.2114 -10.6595
   -10.6595  -4.9571  -4.9571  -4.9571  -3.8061  -0.6896  -0.6896  -0.6896
     1.3273   1.3273   1.3273   1.4124   1.4124   1.4124

          k = 0.0000 0.0000 0.1250 ( 17713 PWs)   bands (ev):

   -18.1797 -13.6120 -13.6061 -13.5103 -13.5103 -13.5102 -11.1972 -10.6841
   -10.6593  -4.9564  -4.9559  -4.9559  -3.9193  -0.6774  -0.6774  -0.4405
     1.3112   1.3114   1.3114   1.3971   1.3971   1.3988

          k = 0.0000 0.0000 0.2500 ( 17732 PWs)   bands (ev):

   -18.1794 -13.6120 -13.5917 -13.5105 -13.5105 -13.5102 -11.1554 -10.7513
   -10.6589  -4.9546  -4.9531  -4.9531  -4.1478  -0.6469  -0.6469   0.1320
     1.2668   1.2668   1.2731   1.3661   1.3661   1.4090

          k = 0.0000 0.0000 0.3750 ( 17784 PWs)   bands (ev):

   -18.1792 -13.6120 -13.5772 -13.5107 -13.5107 -13.5102 -11.0917 -10.8405
   -10.6584  -4.9529  -4.9503  -4.9503  -4.3349  -0.6148  -0.6148   0.6133
     1.2155   1.2155   1.2362   1.3411   1.3411   1.6013

          k = 0.0000 0.0000-0.5000 ( 17704 PWs)   bands (ev):

   -18.1791 -13.6120 -13.5711 -13.5108 -13.5108 -13.5102 -11.0447 -10.8982
   -10.6582  -4.9523  -4.9492  -4.9492  -4.4039  -0.6011  -0.6011   0.7403
     1.1929   1.1929   1.2212   1.3317   1.3317   1.8170

          k = 0.0000 0.1250 0.1250 ( 17729 PWs)   bands (ev):

   -18.1796 -13.6091 -13.6031 -13.5104 -13.5103 -13.5103 -11.1834 -10.6951
   -10.6719  -4.9582  -4.9548  -4.9532  -4.0273  -0.6645  -0.5056  -0.3557
     1.2300   1.2975   1.3391   1.3711   1.3793   1.4307

          k = 0.0000 0.1250 0.2500 ( 17746 PWs)   bands (ev):

   -18.1793 -13.6079 -13.5897 -13.5106 -13.5105 -13.5103 -11.1428 -10.7552
   -10.6764  -4.9581  -4.9521  -4.9510  -4.2477  -0.6324  -0.4274   0.1598
     1.1343   1.2569   1.3307   1.3428   1.3794   1.4560

          k = 0.0000 0.1250 0.3750 ( 17764 PWs)   bands (ev):

   -18.1791 -13.6078 -13.5753 -13.5108 -13.5107 -13.5103 -11.0807 -10.8415
   -10.6766  -4.9562  -4.9507  -4.9494  -4.4300  -0.5985  -0.3877   0.6088
     1.0883   1.2070   1.3146   1.3235   1.3893   1.6306

          k = 0.0000 0.1250-0.5000 ( 17768 PWs)   bands (ev):

   -18.1790 -13.6077 -13.5692 -13.5109 -13.5108 -13.5103 -11.0341 -10.8983
   -10.6765  -4.9543  -4.9517  -4.9482  -4.4976  -0.5840  -0.3714   0.7093
     1.0864   1.1844   1.3044   1.3226   1.3814   1.8478

          k = 0.0000 0.2500 0.2500 ( 17755 PWs)   bands (ev):

   -18.1791 -13.6020 -13.5810 -13.5108 -13.5105 -13.5105 -11.1057 -10.7802
   -10.7105  -4.9612  -4.9512  -4.9496  -4.4554  -0.5960  -0.0049   0.3114
     1.0047   1.2283   1.2902   1.3243   1.4600   1.5246

          k = 0.0000 0.2500 0.3750 ( 17786 PWs)   bands (ev):

   -18.1789 -13.5998 -13.5683 -13.5110 -13.5107 -13.5105 -11.0480 -10.8459
   -10.7246  -4.9614  -4.9542  -4.9471  -4.6303  -0.5574   0.1496   0.5929
     0.9934   1.1862   1.2494   1.3054   1.5473   1.7255

          k = 0.0000 0.2500-0.5000 ( 17784 PWs)   bands (ev):

   -18.1788 -13.5994 -13.5626 -13.5111 -13.5108 -13.5105 -11.0023 -10.8985
   -10.7271  -4.9592  -4.9577  -4.9460  -4.6957  -0.5407   0.1857   0.6307
     1.0464   1.1640   1.2367   1.2949   1.5574   1.9604

          k = 0.0000 0.3750 0.3750 ( 17759 PWs)   bands (ev):

   -18.1787 -13.5951 -13.5579 -13.5112 -13.5107 -13.5107 -10.9964 -10.8642
   -10.7781  -4.9646  -4.9596  -4.9448  -4.8009  -0.5134   0.5676   0.6348
     0.9848   1.1621   1.1851   1.2706   1.6591   1.9795

          k = 0.0000 0.3750-0.5000 ( 17780 PWs)   bands (ev):

   -18.1786 -13.5938 -13.5529 -13.5113 -13.5108 -13.5107 -10.9507 -10.8986
   -10.7978  -4.9641  -4.9637  -4.9438  -4.8651  -0.4942   0.5565   0.7614
     1.0486   1.1439   1.1659   1.2393   1.6902   2.2092

          k = 0.0000-0.5000-0.5000 ( 17780 PWs)   bands (ev):

   -18.1785 -13.5923 -13.5481 -13.5114 -13.5108 -13.5108 -10.8987 -10.8987
   -10.8578  -4.9661  -4.9661  -4.9429  -4.9290  -0.4739   0.5278   1.0536
     1.0536   1.1356   1.1356   1.1448   1.7403   2.4212

          k = 0.1250 0.1250 0.1250 ( 17722 PWs)   bands (ev):

   -18.1795 -13.6031 -13.6031 -13.5104 -13.5104 -13.5104 -11.1701 -10.6949
   -10.6949  -4.9575  -4.9575  -4.9500  -4.1307  -0.4923  -0.4923  -0.2754
     1.2165   1.2165   1.3078   1.3843   1.4277   1.4277

          k = 0.1250 0.1250 0.2500 ( 17763 PWs)   bands (ev):

   -18.1793 -13.6031 -13.5886 -13.5106 -13.5106 -13.5104 -11.1308 -10.7578
   -10.6943  -4.9588  -4.9560  -4.9477  -4.3441  -0.4590  -0.3713   0.1886
     1.1093   1.1675   1.2989   1.3958   1.4288   1.4639

          k = 0.1250 0.1250 0.3750 ( 17778 PWs)   bands (ev):

   -18.1790 -13.6031 -13.5738 -13.5108 -13.5108 -13.5104 -11.0704 -10.8422
   -10.6938  -4.9576  -4.9545  -4.9477  -4.5224  -0.4235  -0.3218   0.6062
     1.0247   1.1785   1.3011   1.3852   1.4277   1.6480

          k = 0.1250 0.1250-0.5000 ( 17778 PWs)   bands (ev):

   -18.1789 -13.6030 -13.5677 -13.5109 -13.5109 -13.5104 -11.0243 -10.8983
   -10.6936  -4.9564  -4.9539  -4.9486  -4.5887  -0.4081  -0.3025   0.6921
     0.9924   1.2223   1.2723   1.3797   1.4250   1.8721

          k = 0.1250 0.2500 0.2500 ( 17772 PWs)   bands (ev):

   -18.1790 -13.5959 -13.5810 -13.5108 -13.5106 -13.5106 -11.0952 -10.7799
   -10.7288  -4.9618  -4.9570  -4.9467  -4.5465  -0.3877   0.0109   0.3364
     0.9996   1.1142   1.2933   1.4219   1.4776   1.5221

          k = 0.1250 0.2500 0.3750 ( 17777 PWs)   bands (ev):

   -18.1788 -13.5940 -13.5680 -13.5110 -13.5108 -13.5106 -11.0397 -10.8461
   -10.7393  -4.9627  -4.9580  -4.9479  -4.7182  -0.3446   0.1727   0.5971
     0.9395   1.1010   1.3088   1.4104   1.5519   1.7291

          k = 0.1250 0.2500-0.5000 ( 17764 PWs)   bands (ev):

   -18.1787 -13.5936 -13.5620 -13.5111 -13.5109 -13.5106 -10.9950 -10.8983
   -10.7406  -4.9614  -4.9598  -4.9487  -4.7827  -0.3262   0.2116   0.6366
     0.9283   1.1280   1.3042   1.4016   1.5640   1.9756

          k = 0.1250 0.3750 0.3750 ( 17762 PWs)   bands (ev):

   -18.1786 -13.5888 -13.5579 -13.5112 -13.5108 -13.5108 -10.9910 -10.8638
   -10.7893  -4.9664  -4.9624  -4.9485  -4.8862  -0.2953   0.5813   0.6421
     0.9050   1.0533   1.3061   1.3922   1.6603   1.9870

          k = 0.1250 0.3750-0.5000 ( 17754 PWs)   bands (ev):

   -18.1786 -13.5876 -13.5528 -13.5113 -13.5109 -13.5108 -10.9474 -10.8983
   -10.8065  -4.9664  -4.9659  -4.9496  -4.9487  -0.2740   0.5747   0.7548
     0.9140   1.0746   1.3075   1.3682   1.6920   2.2267

          k = 0.1250-0.5000-0.5000 ( 17744 PWs)   bands (ev):

   -18.1785 -13.5859 -13.5481 -13.5114 -13.5109 -13.5109 -10.8983 -10.8983
   -10.8632  -5.0128  -4.9684  -4.9684  -4.9486  -0.2515   0.5495   0.9131
     0.9131   1.1456   1.3079   1.3079   1.7418   2.4462

          k = 0.2500 0.2500 0.2500 ( 17755 PWs)   bands (ev):

   -18.1788 -13.5810 -13.5810 -13.5108 -13.5108 -13.5108 -11.0641 -10.7791
   -10.7791  -4.9632  -4.9632  -4.9478  -4.7403   0.0522   0.0522   0.4354
     0.9718   0.9718   1.3874   1.5086   1.5086   1.5285

          k = 0.2500 0.2500 0.3750 ( 17740 PWs)   bands (ev):

   -18.1786 -13.5810 -13.5658 -13.5110 -13.5110 -13.5108 -11.0148 -10.8479
   -10.7783  -4.9662  -4.9647  -4.9520  -4.9069   0.0990   0.2947   0.6067
     0.8632   0.9770   1.4624   1.5065   1.5835   1.7750

          k = 0.2500 0.2500-0.5000 ( 17780 PWs)   bands (ev):

   -18.1786 -13.5809 -13.5595 -13.5111 -13.5111 -13.5108 -10.9731 -10.8978
   -10.7780  -4.9703  -4.9662  -4.9653  -4.9547   0.1206   0.3518   0.6398
     0.8212   1.0131   1.4561   1.5039   1.6025   2.0571

          k = 0.2500 0.3750 0.3750 ( 17775 PWs)   bands (ev):

   -18.1785 -13.5735 -13.5579 -13.5112 -13.5110 -13.5110 -10.9747 -10.8628
   -10.8199  -5.0709  -4.9707  -4.9690  -4.9576   0.2349   0.6137   0.6626
     0.8132   0.9305   1.5084   1.5433   1.6641   2.0392

          k = 0.2500 0.3750-0.5000 ( 17774 PWs)   bands (ev):

   -18.1784 -13.5723 -13.5526 -13.5113 -13.5111 -13.5110 -10.9370 -10.8974
   -10.8300  -5.1332  -4.9717  -4.9712  -4.9602   0.2674   0.6179   0.7366
     0.7861   1.0061   1.5094   1.5352   1.6971   2.3045

          k = 0.2500-0.5000-0.5000 ( 17764 PWs)   bands (ev):

   -18.1783 -13.5704 -13.5481 -13.5114 -13.5111 -13.5111 -10.8972 -10.8972
   -10.8764  -5.1953  -4.9738  -4.9738  -4.9623   0.3034   0.6025   0.7840
     0.7840   1.1474   1.5179   1.5179   1.7453   2.5407

          k = 0.3750 0.3750 0.3750 ( 17787 PWs)   bands (ev):

   -18.1783 -13.5579 -13.5579 -13.5112 -13.5112 -13.5112 -10.9476 -10.8618
   -10.8618  -5.2328  -4.9750  -4.9750  -4.9671   0.6438   0.6924   0.6924
     0.8391   0.8391   1.6410   1.6410   1.6829   2.2750

          k = 0.3750 0.3750-0.5000 ( 17762 PWs)   bands (ev):

   -18.1782 -13.5579 -13.5514 -13.5113 -13.5113 -13.5112 -10.9191 -10.8965
   -10.8614  -5.2946  -4.9770  -4.9767  -4.9715   0.6548   0.7120   0.7144
     0.7969   1.0202   1.6542   1.6567   1.7134   2.5322

          k = 0.3750-0.5000-0.5000 ( 17776 PWs)   bands (ev):

   -18.1781 -13.5547 -13.5481 -13.5114 -13.5113 -13.5113 -10.8962 -10.8962
   -10.8900  -5.3564  -4.9792  -4.9792  -4.9759   0.6562   0.7051   0.7051
     0.8972   1.1493   1.6849   1.6849   1.7489   2.7697

          k =-0.5000-0.5000-0.5000 ( 17784 PWs)   bands (ev):

   -18.1780 -13.5481 -13.5481 -13.5114 -13.5114 -13.5114 -10.8957 -10.8957
   -10.8957  -5.4182  -4.9815  -4.9815  -4.9815   0.6787   0.6787   0.6787
     1.1500   1.1500   1.7504   1.7504   1.7504   3.0054

     highest occupied level (ev):     3.0054

!    total energy              =    -234.72846465 Ry
     Harris-Foulkes estimate   =    -234.72846466 Ry
     estimated scf accuracy    <          1.1E-09 Ry

     The total energy is the sum of the following terms:

     one-electron contribution =     -99.20261128 Ry
     hartree contribution      =      63.44789524 Ry
     xc contribution           =     -36.01103190 Ry
     ewald contribution        =    -162.96271672 Ry

     convergence has been achieved in   9 iterations

     Forces acting on atoms (cartesian axes, Ry/au):

     atom    1 type  1   force =     0.00000000    0.00000000    0.00000000
     atom    2 type  2   force =     0.00000000    0.00000000    0.00000000
     atom    3 type  3   force =     0.00000000    0.00000000    0.00000000
     atom    4 type  3   force =     0.00000000    0.00000000    0.00000000
     atom    5 type  3   force =     0.00000000    0.00000000    0.00000000

     Total force =     0.000000     Total SCF correction =     0.000000


     Computing stress (Cartesian axis) and pressure

          total   stress  (Ry/bohr**3)                   (kbar)     P=   -1.40
  -0.00000951   0.00000000   0.00000000         -1.40      0.00      0.00
   0.00000000  -0.00000951   0.00000000          0.00     -1.40      0.00
   0.00000000   0.00000000  -0.00000951          0.00      0.00     -1.40


     BFGS Geometry Optimization

     number of scf cycles    =   1
     number of bfgs steps    =   0

     enthalpy new            =    -234.7284646543 Ry

     new trust radius        =       0.0018226063 bohr
     new conv_thr            =       0.0000000100 Ry

     new unit-cell volume =   1469.01738 a.u.^3 (   217.68591 Ang^3 )
     density =      0.03814 g/cm^3

CELL_PARAMETERS (alat= 11.37048214)
   0.999762319   0.000000000   0.000000000
   0.000000000   0.999762319   0.000000000
   0.000000000   0.000000000   0.999762319

ATOMIC_POSITIONS (crystal)
Cs       0.000000000   0.000000000   0.000000000
Pb       0.500000000   0.500000000   0.500000000
Br       0.000000000   0.500000000   0.500000000
Br       0.500000000   0.000000000   0.500000000
Br       0.500000000   0.500000000   0.000000000



     Writing output data file pwscf.save
     NEW-OLD atomic charge density approx. for the potential
     extrapolated charge   43.96864, renormalised to   44.00000

     total cpu time spent up to now is       19.1 secs

     per-process dynamical memory:    64.8 Mb

     Self-consistent Calculation

     iteration #  1     ecut=    80.00 Ry     beta=0.70
     Davidson diagonalization with overlap
     ethr =  1.00E-06,  avg # of iterations =  2.0

     Threshold (ethr) on eigenvalues was too large:
     Diagonalizing with lowered threshold

     Davidson diagonalization with overlap
     ethr =  3.58E-08,  avg # of iterations =  3.0

     total cpu time spent up to now is       20.6 secs

     total energy              =    -234.72843889 Ry
     Harris-Foulkes estimate   =    -234.78558009 Ry
     estimated scf accuracy    <       0.00001837 Ry

     iteration #  2     ecut=    80.00 Ry     beta=0.70
     Davidson diagonalization with overlap
     ethr =  4.18E-08,  avg # of iterations =  3.9

     total cpu time spent up to now is       21.4 secs

     total energy              =    -234.72847496 Ry
     Harris-Foulkes estimate   =    -234.72848562 Ry
     estimated scf accuracy    <       0.00002402 Ry

     iteration #  3     ecut=    80.00 Ry     beta=0.70
     Davidson diagonalization with overlap
     ethr =  4.18E-08,  avg # of iterations =  2.0

     total cpu time spent up to now is       22.0 secs

     total energy              =    -234.72847447 Ry
     Harris-Foulkes estimate   =    -234.72847640 Ry
     estimated scf accuracy    <       0.00000548 Ry

     iteration #  4     ecut=    80.00 Ry     beta=0.70
     Davidson diagonalization with overlap
     ethr =  1.24E-08,  avg # of iterations =  2.3

     total cpu time spent up to now is       22.7 secs

     total energy              =    -234.72847371 Ry
     Harris-Foulkes estimate   =    -234.72847478 Ry
     estimated scf accuracy    <       0.00000202 Ry

     iteration #  5     ecut=    80.00 Ry     beta=0.70
     Davidson diagonalization with overlap
     ethr =  4.58E-09,  avg # of iterations =  3.0

     total cpu time spent up to now is       23.4 secs

     total energy              =    -234.72847412 Ry
     Harris-Foulkes estimate   =    -234.72847415 Ry
     estimated scf accuracy    <       0.00000009 Ry

     iteration #  6     ecut=    80.00 Ry     beta=0.70
     Davidson diagonalization with overlap
     ethr =  2.08E-10,  avg # of iterations =  3.0

     total cpu time spent up to now is       24.1 secs

     total energy              =    -234.72847411 Ry
     Harris-Foulkes estimate   =    -234.72847413 Ry
     estimated scf accuracy    <       0.00000003 Ry

     iteration #  7     ecut=    80.00 Ry     beta=0.70
     Davidson diagonalization with overlap
     ethr =  7.11E-11,  avg # of iterations =  3.6

     total cpu time spent up to now is       24.9 secs

     total energy              =    -234.72847411 Ry
     Harris-Foulkes estimate   =    -234.72847414 Ry
     estimated scf accuracy    <       0.00000003 Ry

     iteration #  8     ecut=    80.00 Ry     beta=0.70
     Davidson diagonalization with overlap
     ethr =  6.54E-11,  avg # of iterations =  2.7

     total cpu time spent up to now is       25.6 secs

     End of self-consistent calculation

          k = 0.0000 0.0000 0.0000 ( 17773 PWs)   bands (ev):

   -18.1731 -13.6042 -13.6042 -13.5019 -13.5019 -13.5019 -11.2076 -10.6543
   -10.6543  -4.9505  -4.9505  -4.9505  -3.7977  -0.6862  -0.6862  -0.6862
     1.3321   1.3321   1.3321   1.4175   1.4175   1.4175

          k = 0.0000 0.0000 0.1250 ( 17713 PWs)   bands (ev):

   -18.1730 -13.6042 -13.5983 -13.5019 -13.5019 -13.5019 -11.1934 -10.6789
   -10.6541  -4.9498  -4.9494  -4.9494  -3.9113  -0.6739  -0.6739  -0.4366
     1.3159   1.3162   1.3162   1.4022   1.4022   1.4040

          k = 0.0000 0.0000 0.2501 ( 17732 PWs)   bands (ev):

   -18.1727 -13.6042 -13.5838 -13.5022 -13.5022 -13.5018 -11.1514 -10.7463
   -10.6536  -4.9481  -4.9466  -4.9466  -4.1404  -0.6434  -0.6434   0.1365
     1.2716   1.2716   1.2778   1.3711   1.3711   1.4144

          k = 0.0000 0.0000 0.3751 ( 17784 PWs)   bands (ev):

   -18.1725 -13.6041 -13.5692 -13.5024 -13.5024 -13.5018 -11.0876 -10.8359
   -10.6531  -4.9464  -4.9438  -4.9438  -4.3279  -0.6113  -0.6113   0.6177
     1.2202   1.2202   1.2408   1.3460   1.3460   1.6078

          k = 0.0000 0.0000-0.5001 ( 17704 PWs)   bands (ev):

   -18.1724 -13.6041 -13.5631 -13.5025 -13.5025 -13.5018 -11.0405 -10.8937
   -10.6529  -4.9457  -4.9426  -4.9426  -4.3970  -0.5975  -0.5975   0.7445
     1.1976   1.1976   1.2258   1.3366   1.3366   1.8241

          k = 0.0000 0.1250 0.1250 ( 17729 PWs)   bands (ev):

   -18.1729 -13.6012 -13.5952 -13.5020 -13.5019 -13.5019 -11.1796 -10.6900
   -10.6667  -4.9516  -4.9482  -4.9466  -4.0196  -0.6610  -0.5020  -0.3516
     1.2348   1.3023   1.3439   1.3762   1.3843   1.4358

          k = 0.0000 0.1250 0.2501 ( 17746 PWs)   bands (ev):

   -18.1726 -13.6001 -13.5818 -13.5023 -13.5022 -13.5019 -11.1389 -10.7503
   -10.6712  -4.9516  -4.9455  -4.9444  -4.2405  -0.6289  -0.4236   0.1644
     1.1389   1.2616   1.3356   1.3478   1.3845   1.4612

          k = 0.0000 0.1250 0.3751 ( 17764 PWs)   bands (ev):

   -18.1724 -13.5999 -13.5673 -13.5025 -13.5024 -13.5019 -11.0766 -10.8368
   -10.6714  -4.9496  -4.9441  -4.9428  -4.4233  -0.5950  -0.3839   0.6132
     1.0929   1.2117   1.3194   1.3284   1.3943   1.6371

          k = 0.0000 0.1250-0.5001 ( 17768 PWs)   bands (ev):

   -18.1723 -13.5999 -13.5612 -13.5026 -13.5025 -13.5019 -11.0298 -10.8938
   -10.6713  -4.9477  -4.9451  -4.9417  -4.4910  -0.5804  -0.3675   0.7134
     1.0910   1.1891   1.3092   1.3275   1.3863   1.8550

          k = 0.0000 0.2501 0.2501 ( 17755 PWs)   bands (ev):

   -18.1724 -13.5942 -13.5730 -13.5025 -13.5022 -13.5022 -11.1016 -10.7753
   -10.7054  -4.9546  -4.9446  -4.9430  -4.4487  -0.5925  -0.0008   0.3161
     1.0093   1.2329   1.2951   1.3292   1.4657   1.5297

          k = 0.0000 0.2501 0.3751 ( 17786 PWs)   bands (ev):

   -18.1722 -13.5919 -13.5603 -13.5027 -13.5024 -13.5022 -11.0438 -10.8413
   -10.7196  -4.9548  -4.9476  -4.9405  -4.6240  -0.5538   0.1540   0.5971
     0.9980   1.1908   1.2542   1.3104   1.5525   1.7322

          k = 0.0000 0.2501-0.5001 ( 17784 PWs)   bands (ev):

   -18.1721 -13.5915 -13.5545 -13.5028 -13.5025 -13.5022 -10.9980 -10.8940
   -10.7220  -4.9527  -4.9511  -4.9395  -4.6895  -0.5371   0.1902   0.6347
     1.0509   1.1687   1.2414   1.2999   1.5625   1.9678

          k = 0.0000 0.3751 0.3751 ( 17759 PWs)   bands (ev):

   -18.1720 -13.5872 -13.5498 -13.5029 -13.5024 -13.5024 -10.9921 -10.8596
   -10.7732  -4.9581  -4.9531  -4.9382  -4.7949  -0.5098   0.5716   0.6395
     0.9894   1.1667   1.1898   1.2757   1.6644   1.9869

          k = 0.0000 0.3751-0.5001 ( 17780 PWs)   bands (ev):

   -18.1719 -13.5859 -13.5448 -13.5030 -13.5025 -13.5024 -10.9463 -10.8942
   -10.7929  -4.9576  -4.9571  -4.9372  -4.8592  -0.4906   0.5604   0.7662
     1.0532   1.1485   1.1705   1.2444   1.6956   2.2172

          k = 0.0000-0.5001-0.5001 ( 17780 PWs)   bands (ev):

   -18.1718 -13.5843 -13.5400 -13.5031 -13.5025 -13.5025 -10.8942 -10.8942
   -10.8531  -4.9596  -4.9596  -4.9363  -4.9232  -0.4702   0.5317   1.0582
     1.0582   1.1402   1.1402   1.1503   1.7457   2.4296

          k = 0.1250 0.1250 0.1250 ( 17722 PWs)   bands (ev):

   -18.1728 -13.5952 -13.5952 -13.5020 -13.5020 -13.5020 -11.1662 -10.6898
   -10.6898  -4.9510  -4.9510  -4.9434  -4.1233  -0.4887  -0.4887  -0.2711
     1.2212   1.2212   1.3129   1.3892   1.4328   1.4328

          k = 0.1250 0.1250 0.2501 ( 17763 PWs)   bands (ev):

   -18.1726 -13.5952 -13.5806 -13.5023 -13.5023 -13.5020 -11.1268 -10.7529
   -10.6892  -4.9522  -4.9495  -4.9411  -4.3373  -0.4553  -0.3675   0.1932
     1.1138   1.1722   1.3040   1.4008   1.4338   1.4692

          k = 0.1250 0.1250 0.3751 ( 17778 PWs)   bands (ev):

   -18.1723 -13.5952 -13.5658 -13.5025 -13.5025 -13.5020 -11.0662 -10.8375
   -10.6886  -4.9511  -4.9479  -4.9411  -4.5158  -0.4198  -0.3178   0.6105
     1.0292   1.1832   1.3061   1.3901   1.4326   1.6544

          k = 0.1250 0.1250-0.5001 ( 17778 PWs)   bands (ev):

   -18.1722 -13.5952 -13.5596 -13.5026 -13.5026 -13.5020 -11.0201 -10.8938
   -10.6884  -4.9498  -4.9473  -4.9420  -4.5823  -0.4044  -0.2985   0.6963
     0.9968   1.2271   1.2770   1.3847   1.4299   1.8794

          k = 0.1250 0.2501 0.2501 ( 17772 PWs)   bands (ev):

   -18.1723 -13.5880 -13.5730 -13.5025 -13.5022 -13.5022 -11.0912 -10.7750
   -10.7237  -4.9552  -4.9505  -4.9401  -4.5401  -0.3839   0.0151   0.3410
     1.0041   1.1188   1.2986   1.4269   1.4831   1.5272

          k = 0.1250 0.2501 0.3751 ( 17777 PWs)   bands (ev):

   -18.1721 -13.5861 -13.5599 -13.5027 -13.5025 -13.5022 -11.0355 -10.8415
   -10.7343  -4.9561  -4.9515  -4.9413  -4.7121  -0.3408   0.1772   0.6013
     0.9439   1.1056   1.3138   1.4154   1.5571   1.7358

          k = 0.1250 0.2501-0.5001 ( 17764 PWs)   bands (ev):

   -18.1720 -13.5857 -13.5540 -13.5028 -13.5026 -13.5022 -10.9907 -10.8938
   -10.7356  -4.9548  -4.9533  -4.9421  -4.7767  -0.3224   0.2161   0.6406
     0.9327   1.1328   1.3090   1.4066   1.5691   1.9830

          k = 0.1250 0.3751 0.3751 ( 17762 PWs)   bands (ev):

   -18.1719 -13.5809 -13.5498 -13.5029 -13.5025 -13.5025 -10.9867 -10.8592
   -10.7845  -4.9598  -4.9559  -4.9419  -4.8804  -0.2913   0.5853   0.6468
     0.9095   1.0580   1.3110   1.3972   1.6655   1.9944

          k = 0.1250 0.3751-0.5001 ( 17754 PWs)   bands (ev):

   -18.1718 -13.5796 -13.5447 -13.5030 -13.5026 -13.5025 -10.9430 -10.8938
   -10.8017  -4.9598  -4.9594  -4.9439  -4.9421  -0.2701   0.5786   0.7595
     0.9184   1.0795   1.3123   1.3732   1.6973   2.2346

          k = 0.1250-0.5001-0.5001 ( 17744 PWs)   bands (ev):

   -18.1718 -13.5780 -13.5400 -13.5031 -13.5026 -13.5026 -10.8938 -10.8938
   -10.8585  -5.0073  -4.9619  -4.9619  -4.9421  -0.2475   0.5534   0.9175
     0.9175   1.1511   1.3127   1.3127   1.7472   2.4547

          k = 0.2501 0.2501 0.2501 ( 17755 PWs)   bands (ev):

   -18.1721 -13.5730 -13.5730 -13.5025 -13.5025 -13.5025 -11.0600 -10.7742
   -10.7742  -4.9567  -4.9567  -4.9412  -4.7343   0.0564   0.0564   0.4399
     0.9762   0.9762   1.3936   1.5138   1.5138   1.5336

          k = 0.2501 0.2501 0.3751 ( 17740 PWs)   bands (ev):

   -18.1719 -13.5730 -13.5578 -13.5027 -13.5027 -13.5025 -11.0106 -10.8433
   -10.7734  -4.9597  -4.9581  -4.9454  -4.9013   0.1032   0.2992   0.6108
     0.8675   0.9816   1.4676   1.5116   1.5887   1.7820

          k = 0.2501 0.2501-0.5001 ( 17780 PWs)   bands (ev):

   -18.1719 -13.5730 -13.5514 -13.5028 -13.5028 -13.5025 -10.9688 -10.8934
   -10.7731  -4.9647  -4.9597  -4.9588  -4.9482   0.1249   0.3564   0.6438
     0.8255   1.0178   1.4611   1.5090   1.6077   2.0648

          k = 0.2501 0.3751 0.3751 ( 17775 PWs)   bands (ev):

   -18.1717 -13.5655 -13.5498 -13.5029 -13.5027 -13.5027 -10.9704 -10.8582
   -10.8152  -5.0655  -4.9642  -4.9625  -4.9510   0.2394   0.6178   0.6672
     0.8176   0.9352   1.5135   1.5485   1.6694   2.0469

          k = 0.2501 0.3751-0.5001 ( 17774 PWs)   bands (ev):

   -18.1717 -13.5643 -13.5445 -13.5030 -13.5028 -13.5027 -10.9326 -10.8929
   -10.8253  -5.1279  -4.9652  -4.9647  -4.9537   0.2720   0.6220   0.7411
     0.7904   1.0112   1.5145   1.5404   1.7024   2.3127

          k = 0.2501-0.5001-0.5001 ( 17764 PWs)   bands (ev):

   -18.1716 -13.5624 -13.5400 -13.5031 -13.5028 -13.5028 -10.8927 -10.8927
   -10.8718  -5.1902  -4.9673  -4.9673  -4.9558   0.3080   0.6065   0.7883
     0.7883   1.1529   1.5230   1.5230   1.7507   2.5493

          k = 0.3751 0.3751 0.3751 ( 17787 PWs)   bands (ev):

   -18.1716 -13.5498 -13.5498 -13.5029 -13.5029 -13.5029 -10.9432 -10.8572
   -10.8572  -5.2277  -4.9685  -4.9685  -4.9606   0.6479   0.6969   0.6969
     0.8440   0.8440   1.6462   1.6462   1.6883   2.2831

          k = 0.3751 0.3751-0.5001 ( 17762 PWs)   bands (ev):

   -18.1715 -13.5498 -13.5433 -13.5030 -13.5030 -13.5029 -10.9146 -10.8920
   -10.8568  -5.2897  -4.9705  -4.9702  -4.9650   0.6589   0.7163   0.7187
     0.8020   1.0256   1.6595   1.6620   1.7188   2.5407

          k = 0.3751-0.5001-0.5001 ( 17776 PWs)   bands (ev):

   -18.1714 -13.5466 -13.5399 -13.5031 -13.5030 -13.5030 -10.8917 -10.8917
   -10.8855  -5.3516  -4.9728  -4.9728  -4.9694   0.6604   0.7093   0.7093
     0.9024   1.1548   1.6903   1.6903   1.7543   2.7788

          k =-0.5001-0.5001-0.5001 ( 17784 PWs)   bands (ev):

   -18.1713 -13.5399 -13.5399 -13.5031 -13.5031 -13.5031 -10.8912 -10.8912
   -10.8912  -5.4134  -4.9750  -4.9750  -4.9750   0.6829   0.6829   0.6829
     1.1555   1.1555   1.7558   1.7558   1.7558   3.0149

     highest occupied level (ev):     3.0149

!    total energy              =    -234.72847412 Ry
     Harris-Foulkes estimate   =    -234.72847413 Ry
     estimated scf accuracy    <          6.3E-09 Ry

     The total energy is the sum of the following terms:

     one-electron contribution =     -99.14273366 Ry
     hartree contribution      =      63.42753500 Ry
     xc contribution           =     -36.01181638 Ry
     ewald contribution        =    -163.00145908 Ry

     convergence has been achieved in   8 iterations

     Forces acting on atoms (cartesian axes, Ry/au):

     atom    1 type  1   force =     0.00000000    0.00000000    0.00000000
     atom    2 type  2   force =     0.00000000    0.00000000    0.00000000
     atom    3 type  3   force =     0.00000000    0.00000000    0.00000000
     atom    4 type  3   force =     0.00000000    0.00000000    0.00000000
     atom    5 type  3   force =     0.00000000    0.00000000    0.00000000

     Total force =     0.000000     Total SCF correction =     0.000000


     Computing stress (Cartesian axis) and pressure

          total   stress  (Ry/bohr**3)                   (kbar)     P=   -1.31
  -0.00000888   0.00000000   0.00000000         -1.31      0.00      0.00
   0.00000000  -0.00000888   0.00000000          0.00     -1.31      0.00
   0.00000000   0.00000000  -0.00000888          0.00      0.00     -1.31


     number of scf cycles    =   2
     number of bfgs steps    =   1

     enthalpy old            =    -234.7284646543 Ry
     enthalpy new            =    -234.7284741209 Ry

     CASE: enthalpy_new < enthalpy_old


     WARNING: bfgs curvature condition failed, Theta= 0.857
     new trust radius        =       0.0027335845 bohr
     new conv_thr            =            1.0E-10 Ry

     new unit-cell volume =   1467.44636 a.u.^3 (   217.45311 Ang^3 )
     density =      0.03818 g/cm^3

CELL_PARAMETERS (alat= 11.37048214)
   0.999405797   0.000000000   0.000000000
   0.000000000   0.999405797   0.000000000
   0.000000000   0.000000000   0.999405797

ATOMIC_POSITIONS (crystal)
Cs       0.000000000   0.000000000   0.000000000
Pb       0.500000000   0.500000000   0.500000000
Br       0.000000000   0.500000000   0.500000000
Br       0.500000000   0.000000000   0.500000000
Br       0.500000000   0.500000000   0.000000000



     Writing output data file pwscf.save
     NEW-OLD atomic charge density approx. for the potential
     extrapolated charge   43.95294, renormalised to   44.00000

     total cpu time spent up to now is       31.3 secs

     per-process dynamical memory:    65.4 Mb

     Self-consistent Calculation

     iteration #  1     ecut=    80.00 Ry     beta=0.70
     Davidson diagonalization with overlap
     ethr =  1.00E-06,  avg # of iterations =  2.0

     Threshold (ethr) on eigenvalues was too large:
     Diagonalizing with lowered threshold

     Davidson diagonalization with overlap
     ethr =  8.69E-08,  avg # of iterations =  2.9

     total cpu time spent up to now is       32.6 secs

     total energy              =    -234.72840783 Ry
     Harris-Foulkes estimate   =    -234.81411528 Ry
     estimated scf accuracy    <       0.00004153 Ry

     iteration #  2     ecut=    80.00 Ry     beta=0.70
     Davidson diagonalization with overlap
     ethr =  9.44E-08,  avg # of iterations =  3.9

     total cpu time spent up to now is       33.4 secs

     total energy              =    -234.72848846 Ry
     Harris-Foulkes estimate   =    -234.72851233 Ry
     estimated scf accuracy    <       0.00005361 Ry

     iteration #  3     ecut=    80.00 Ry     beta=0.70
     Davidson diagonalization with overlap
     ethr =  9.44E-08,  avg # of iterations =  2.0

     total cpu time spent up to now is       34.0 secs

     total energy              =    -234.72848737 Ry
     Harris-Foulkes estimate   =    -234.72849167 Ry
     estimated scf accuracy    <       0.00001196 Ry

     iteration #  4     ecut=    80.00 Ry     beta=0.70
     Davidson diagonalization with overlap
     ethr =  2.72E-08,  avg # of iterations =  2.2

     total cpu time spent up to now is       34.6 secs

     total energy              =    -234.72848549 Ry
     Harris-Foulkes estimate   =    -234.72848799 Ry
     estimated scf accuracy    <       0.00000436 Ry

     iteration #  5     ecut=    80.00 Ry     beta=0.70
     Davidson diagonalization with overlap
     ethr =  9.91E-09,  avg # of iterations =  3.0

     total cpu time spent up to now is       35.4 secs

     total energy              =    -234.72848659 Ry
     Harris-Foulkes estimate   =    -234.72848661 Ry
     estimated scf accuracy    <       0.00000007 Ry

     iteration #  6     ecut=    80.00 Ry     beta=0.70
     Davidson diagonalization with overlap
     ethr =  1.59E-10,  avg # of iterations =  4.2

     total cpu time spent up to now is       36.2 secs

     total energy              =    -234.72848660 Ry
     Harris-Foulkes estimate   =    -234.72848661 Ry
     estimated scf accuracy    <       0.00000003 Ry

     iteration #  7     ecut=    80.00 Ry     beta=0.70
     Davidson diagonalization with overlap
     ethr =  6.77E-11,  avg # of iterations =  3.0

     total cpu time spent up to now is       37.0 secs

     total energy              =    -234.72848659 Ry
     Harris-Foulkes estimate   =    -234.72848663 Ry
     estimated scf accuracy    <       0.00000006 Ry

     iteration #  8     ecut=    80.00 Ry     beta=0.70
     Davidson diagonalization with overlap
     ethr =  6.77E-11,  avg # of iterations =  3.0

     total cpu time spent up to now is       37.7 secs

     total energy              =    -234.72848660 Ry
     Harris-Foulkes estimate   =    -234.72848662 Ry
     estimated scf accuracy    <       0.00000003 Ry

     iteration #  9     ecut=    80.00 Ry     beta=0.70
     Davidson diagonalization with overlap
     ethr =  6.37E-11,  avg # of iterations =  2.1

     total cpu time spent up to now is       38.4 secs

     total energy              =    -234.72848660 Ry
     Harris-Foulkes estimate   =    -234.72848660 Ry
     estimated scf accuracy    <          1.4E-09 Ry

     iteration # 10     ecut=    80.00 Ry     beta=0.70
     Davidson diagonalization with overlap
     ethr =  3.15E-12,  avg # of iterations =  3.4

     total cpu time spent up to now is       39.2 secs

     total energy              =    -234.72848660 Ry
     Harris-Foulkes estimate   =    -234.72848660 Ry
     estimated scf accuracy    <          1.8E-09 Ry

     iteration # 11     ecut=    80.00 Ry     beta=0.70
     Davidson diagonalization with overlap
     ethr =  3.15E-12,  avg # of iterations =  2.0

     total cpu time spent up to now is       39.8 secs

     End of self-consistent calculation

          k = 0.0000 0.0000 0.0000 ( 17773 PWs)   bands (ev):

   -18.1631 -13.5942 -13.5942 -13.4912 -13.4912 -13.4912 -11.2020 -10.6466
   -10.6466  -4.9407  -4.9407  -4.9407  -3.7862  -0.6813  -0.6813  -0.6813
     1.3392   1.3392   1.3392   1.4251   1.4251   1.4251

          k = 0.0000 0.0000 0.1251 ( 17713 PWs)   bands (ev):

   -18.1630 -13.5942 -13.5882 -13.4912 -13.4912 -13.4912 -11.1878 -10.6714
   -10.6464  -4.9400  -4.9396  -4.9396  -3.9004  -0.6690  -0.6690  -0.4311
     1.3230   1.3233   1.3233   1.4097   1.4097   1.4116

          k = 0.0000 0.0000 0.2501 ( 17732 PWs)   bands (ev):

   -18.1628 -13.5942 -13.5737 -13.4915 -13.4915 -13.4911 -11.1457 -10.7390
   -10.6459  -4.9382  -4.9367  -4.9367  -4.1303  -0.6385  -0.6385   0.1430
     1.2787   1.2787   1.2848   1.3785   1.3785   1.4223

          k = 0.0000 0.0000 0.3752 ( 17784 PWs)   bands (ev):

   -18.1625 -13.5942 -13.5590 -13.4917 -13.4917 -13.4911 -11.0817 -10.8290
   -10.6455  -4.9365  -4.9339  -4.9339  -4.3184  -0.6064  -0.6064   0.6242
     1.2272   1.2272   1.2477   1.3532   1.3532   1.6171

          k = 0.0000 0.0000-0.5003 ( 17704 PWs)   bands (ev):

   -18.1625 -13.5942 -13.5528 -13.4918 -13.4918 -13.4911 -11.0343 -10.8872
   -10.6453  -4.9358  -4.9327  -4.9327  -4.3877  -0.5926  -0.5926   0.7507
     1.2046   1.2046   1.2326   1.3438   1.3438   1.8344

          k = 0.0000 0.1251 0.1251 ( 17729 PWs)   bands (ev):

   -18.1629 -13.5912 -13.5852 -13.4913 -13.4912 -13.4912 -11.1739 -10.6825
   -10.6591  -4.9418  -4.9384  -4.9368  -4.0091  -0.6561  -0.4968  -0.3458
     1.2417   1.3094   1.3511   1.3837   1.3918   1.4434

          k = 0.0000 0.1251 0.2501 ( 17746 PWs)   bands (ev):

   -18.1627 -13.5901 -13.5717 -13.4916 -13.4915 -13.4912 -11.1331 -10.7431
   -10.6636  -4.9418  -4.9357  -4.9346  -4.2308  -0.6239  -0.4182   0.1710
     1.1458   1.2686   1.3428   1.3551   1.3921   1.4690

          k = 0.0000 0.1251 0.3752 ( 17764 PWs)   bands (ev):

   -18.1625 -13.5899 -13.5571 -13.4918 -13.4917 -13.4912 -11.0706 -10.8300
   -10.6638  -4.9398  -4.9343  -4.9330  -4.4141  -0.5900  -0.3784   0.6196
     1.0997   1.2186   1.3266   1.3356   1.4016   1.6464

          k = 0.0000 0.1251-0.5003 ( 17768 PWs)   bands (ev):

   -18.1624 -13.5899 -13.5509 -13.4919 -13.4918 -13.4912 -11.0237 -10.8873
   -10.6637  -4.9379  -4.9353  -4.9318  -4.4820  -0.5754  -0.3621   0.7195
     1.0977   1.1960   1.3164   1.3348   1.3936   1.8654

          k = 0.0000 0.2501 0.2501 ( 17755 PWs)   bands (ev):

   -18.1625 -13.5841 -13.5628 -13.4918 -13.4915 -13.4915 -11.0958 -10.7682
   -10.6979  -4.9448  -4.9347  -4.9332  -4.4397  -0.5875   0.0052   0.3228
     1.0160   1.2399   1.3023   1.3365   1.4740   1.5374

          k = 0.0000 0.2501 0.3752 ( 17786 PWs)   bands (ev):

   -18.1623 -13.5819 -13.5500 -13.4920 -13.4917 -13.4915 -11.0377 -10.8345
   -10.7122  -4.9450  -4.9378  -4.9306  -4.6155  -0.5488   0.1603   0.6033
     1.0048   1.1977   1.2612   1.3177   1.5602   1.7419

          k = 0.0000 0.2501-0.5003 ( 17784 PWs)   bands (ev):

   -18.1622 -13.5814 -13.5442 -13.4921 -13.4918 -13.4915 -10.9917 -10.8874
   -10.7147  -4.9428  -4.9413  -4.9296  -4.6811  -0.5320   0.1966   0.6406
     1.0576   1.1755   1.2484   1.3073   1.5701   1.9785

          k = 0.0000 0.3752 0.3752 ( 17759 PWs)   bands (ev):

   -18.1620 -13.5771 -13.5395 -13.4922 -13.4917 -13.4917 -10.9859 -10.8529
   -10.7661  -4.9483  -4.9432  -4.9283  -4.7869  -0.5046   0.5774   0.6464
     0.9962   1.1735   1.1967   1.2831   1.6723   1.9976

          k = 0.0000 0.3752-0.5003 ( 17780 PWs)   bands (ev):

   -18.1620 -13.5758 -13.5344 -13.4923 -13.4918 -13.4917 -10.9399 -10.8876
   -10.7859  -4.9478  -4.9474  -4.9274  -4.8514  -0.4854   0.5662   0.7732
     1.0599   1.1552   1.1774   1.2519   1.7034   2.2286

          k = 0.0000-0.5003-0.5003 ( 17780 PWs)   bands (ev):

   -18.1619 -13.5742 -13.5295 -13.4924 -13.4918 -13.4918 -10.8877 -10.8877
   -10.8462  -4.9498  -4.9498  -4.9264  -4.9155  -0.4649   0.5374   1.0651
     1.0651   1.1469   1.1469   1.1583   1.7537   2.4417

          k = 0.1251 0.1251 0.1251 ( 17722 PWs)   bands (ev):

   -18.1628 -13.5852 -13.5852 -13.4913 -13.4913 -13.4913 -11.1606 -10.6822
   -10.6822  -4.9412  -4.9412  -4.9336  -4.1133  -0.4835  -0.4835  -0.2650
     1.2281   1.2281   1.3204   1.3965   1.4404   1.4404

          k = 0.1251 0.1251 0.2501 ( 17763 PWs)   bands (ev):

   -18.1626 -13.5852 -13.5705 -13.4916 -13.4916 -13.4913 -11.1210 -10.7457
   -10.6817  -4.9424  -4.9397  -4.9312  -4.3280  -0.4500  -0.3620   0.1999
     1.1206   1.1792   1.3116   1.4081   1.4412   1.4770

          k = 0.1251 0.1251 0.3752 ( 17778 PWs)   bands (ev):

   -18.1624 -13.5852 -13.5556 -13.4918 -13.4918 -13.4913 -11.0602 -10.8307
   -10.6811  -4.9413  -4.9381  -4.9313  -4.5070  -0.4145  -0.3122   0.6168
     1.0358   1.1902   1.3134   1.3975   1.4400   1.6638

          k = 0.1251 0.1251-0.5003 ( 17778 PWs)   bands (ev):

   -18.1623 -13.5851 -13.5494 -13.4919 -13.4919 -13.4913 -11.0139 -10.8873
   -10.6809  -4.9400  -4.9375  -4.9321  -4.5737  -0.3991  -0.2928   0.7024
     1.0034   1.2342   1.2842   1.3920   1.4372   1.8899

          k = 0.1251 0.2501 0.2501 ( 17772 PWs)   bands (ev):

   -18.1624 -13.5779 -13.5628 -13.4918 -13.4916 -13.4916 -11.0853 -10.7679
   -10.7164  -4.9454  -4.9407  -4.9302  -4.5314  -0.3785   0.0211   0.3477
     1.0108   1.1257   1.3063   1.4343   1.4911   1.5348

          k = 0.1251 0.2501 0.3752 ( 17777 PWs)   bands (ev):

   -18.1622 -13.5760 -13.5496 -13.4920 -13.4918 -13.4915 -11.0294 -10.8347
   -10.7270  -4.9463  -4.9417  -4.9315  -4.7039  -0.3353   0.1835   0.6074
     0.9505   1.1125   1.3211   1.4228   1.5647   1.7455

          k = 0.1251 0.2501-0.5003 ( 17764 PWs)   bands (ev):

   -18.1621 -13.5756 -13.5437 -13.4921 -13.4919 -13.4915 -10.9844 -10.8873
   -10.7283  -4.9450  -4.9435  -4.9323  -4.7686  -0.3169   0.2225   0.6466
     0.9392   1.1397   1.3161   1.4140   1.5768   1.9938

          k = 0.1251 0.3752 0.3752 ( 17762 PWs)   bands (ev):

   -18.1620 -13.5707 -13.5395 -13.4922 -13.4918 -13.4918 -10.9805 -10.8525
   -10.7774  -4.9501  -4.9461  -4.9320  -4.8727  -0.2858   0.5912   0.6536
     0.9161   1.0649   1.3182   1.4047   1.6734   2.0052

          k = 0.1251 0.3752-0.5003 ( 17754 PWs)   bands (ev):

   -18.1619 -13.5695 -13.5343 -13.4923 -13.4919 -13.4918 -10.9365 -10.8873
   -10.7947  -4.9501  -4.9496  -4.9364  -4.9322  -0.2645   0.5844   0.7664
     0.9250   1.0866   1.3195   1.3806   1.7052   2.2462

          k = 0.1251-0.5003-0.5003 ( 17744 PWs)   bands (ev):

   -18.1618 -13.5678 -13.5295 -13.4924 -13.4919 -13.4919 -10.8873 -10.8873
   -10.8517  -4.9999  -4.9521  -4.9521  -4.9322  -0.2418   0.5592   0.9241
     0.9241   1.1591   1.3198   1.3198   1.7552   2.4669

          k = 0.2501 0.2501 0.2501 ( 17755 PWs)   bands (ev):

   -18.1622 -13.5628 -13.5628 -13.4918 -13.4918 -13.4918 -11.0540 -10.7671
   -10.7671  -4.9469  -4.9469  -4.9313  -4.7263   0.0625   0.0625   0.4464
     0.9828   0.9828   1.4026   1.5214   1.5214   1.5411

          k = 0.2501 0.2501 0.3752 ( 17740 PWs)   bands (ev):

   -18.1620 -13.5628 -13.5475 -13.4920 -13.4920 -13.4918 -11.0044 -10.8365
   -10.7663  -4.9500  -4.9484  -4.9356  -4.8937   0.1094   0.3058   0.6169
     0.8740   0.9883   1.4754   1.5192   1.5964   1.7920

          k = 0.2501 0.2501-0.5003 ( 17780 PWs)   bands (ev):

   -18.1619 -13.5628 -13.5411 -13.4921 -13.4921 -13.4918 -10.9625 -10.8868
   -10.7660  -4.9572  -4.9500  -4.9490  -4.9383   0.1311   0.3631   0.6498
     0.8319   1.0247   1.4685   1.5166   1.6154   2.0759

          k = 0.2501 0.3752 0.3752 ( 17775 PWs)   bands (ev):

   -18.1618 -13.5552 -13.5395 -13.4922 -13.4920 -13.4920 -10.9641 -10.8515
   -10.8083  -5.0584  -4.9544  -4.9527  -4.9412   0.2458   0.6238   0.6740
     0.8240   0.9421   1.5212   1.5561   1.6773   2.0579

          k = 0.2501 0.3752-0.5003 ( 17774 PWs)   bands (ev):

   -18.1617 -13.5541 -13.5341 -13.4923 -13.4921 -13.4920 -10.9262 -10.8864
   -10.8184  -5.1209  -4.9554  -4.9550  -4.9439   0.2785   0.6280   0.7477
     0.7967   1.0186   1.5220   1.5480   1.7103   2.3244

          k = 0.2501-0.5003-0.5003 ( 17764 PWs)   bands (ev):

   -18.1616 -13.5521 -13.5295 -13.4924 -13.4921 -13.4921 -10.8862 -10.8862
   -10.8651  -5.1834  -4.9576  -4.9576  -4.9460   0.3146   0.6125   0.7946
     0.7946   1.1610   1.5305   1.5305   1.7587   2.5618

          k = 0.3752 0.3752 0.3752 ( 17787 PWs)   bands (ev):

   -18.1616 -13.5395 -13.5395 -13.4922 -13.4922 -13.4922 -10.9368 -10.8505
   -10.8505  -5.2210  -4.9588  -4.9588  -4.9509   0.6540   0.7035   0.7035
     0.8511   0.8511   1.6541   1.6541   1.6961   2.2948

          k = 0.3752 0.3752-0.5003 ( 17762 PWs)   bands (ev):

   -18.1615 -13.5395 -13.5329 -13.4923 -13.4923 -13.4922 -10.9081 -10.8855
   -10.8501  -5.2831  -4.9608  -4.9606  -4.9553   0.6651   0.7226   0.7250
     0.8093   1.0333   1.6673   1.6698   1.7267   2.5531

          k = 0.3752-0.5003-0.5003 ( 17776 PWs)   bands (ev):

   -18.1614 -13.5362 -13.5295 -13.4924 -13.4923 -13.4923 -10.8851 -10.8851
   -10.8789  -5.3452  -4.9631  -4.9631  -4.9597   0.6665   0.7156   0.7156
     0.9100   1.1628   1.6981   1.6981   1.7623   2.7918

          k =-0.5003-0.5003-0.5003 ( 17784 PWs)   bands (ev):

   -18.1614 -13.5295 -13.5295 -13.4924 -13.4924 -13.4924 -10.8847 -10.8847
   -10.8847  -5.4072  -4.9653  -4.9653  -4.9653   0.6892   0.6892   0.6892
     1.1636   1.1636   1.7638   1.7638   1.7638   3.0287

     highest occupied level (ev):     3.0287

!    total energy              =    -234.72848660 Ry
     Harris-Foulkes estimate   =    -234.72848660 Ry
     estimated scf accuracy    <          4.6E-12 Ry

     The total energy is the sum of the following terms:

     one-electron contribution =     -99.05384833 Ry
     hartree contribution      =      63.39811404 Ry
     xc contribution           =     -36.01314514 Ry
     ewald contribution        =    -163.05960717 Ry

     convergence has been achieved in  11 iterations

     Forces acting on atoms (cartesian axes, Ry/au):

     atom    1 type  1   force =     0.00000000    0.00000000    0.00000000
     atom    2 type  2   force =     0.00000000    0.00000000    0.00000000
     atom    3 type  3   force =     0.00000000    0.00000000    0.00000000
     atom    4 type  3   force =     0.00000000    0.00000000    0.00000000
     atom    5 type  3   force =     0.00000000    0.00000000    0.00000000

     Total force =     0.000000     Total SCF correction =     0.000000


     Computing stress (Cartesian axis) and pressure

          total   stress  (Ry/bohr**3)                   (kbar)     P=   -1.07
  -0.00000729   0.00000000   0.00000000         -1.07      0.00      0.00
   0.00000000  -0.00000729   0.00000000          0.00     -1.07      0.00
   0.00000000   0.00000000  -0.00000729          0.00      0.00     -1.07


     number of scf cycles    =   3
     number of bfgs steps    =   2

     enthalpy old            =    -234.7284741209 Ry
     enthalpy new            =    -234.7284866025 Ry

     CASE: enthalpy_new < enthalpy_old

     new trust radius        =       0.0040996455 bohr
     new conv_thr            =            1.0E-10 Ry

     new unit-cell volume =   1465.09192 a.u.^3 (   217.10422 Ang^3 )
     density =      0.03824 g/cm^3

CELL_PARAMETERS (alat= 11.37048214)
   0.998871015   0.000000000   0.000000000
   0.000000000   0.998871015   0.000000000
   0.000000000   0.000000000   0.998871015

ATOMIC_POSITIONS (crystal)
Cs       0.000000000   0.000000000   0.000000000
Pb       0.500000000   0.500000000   0.500000000
Br       0.000000000   0.500000000   0.500000000
Br       0.500000000   0.000000000   0.500000000
Br       0.500000000   0.500000000   0.000000000



     Writing output data file pwscf.save
     NEW-OLD atomic charge density approx. for the potential
     extrapolated charge   43.92936, renormalised to   44.00000

     total cpu time spent up to now is       45.3 secs

     per-process dynamical memory:    65.6 Mb

     Self-consistent Calculation

     iteration #  1     ecut=    80.00 Ry     beta=0.70
     Davidson diagonalization with overlap
     ethr =  1.00E-06,  avg # of iterations =  2.6

     total cpu time spent up to now is       46.0 secs

     total energy              =    -234.72833116 Ry
     Harris-Foulkes estimate   =    -234.85687225 Ry
     estimated scf accuracy    <       0.00008727 Ry

     iteration #  2     ecut=    80.00 Ry     beta=0.70
     Davidson diagonalization with overlap
     ethr =  1.98E-07,  avg # of iterations =  3.9

     total cpu time spent up to now is       46.8 secs

     total energy              =    -234.72850569 Ry
     Harris-Foulkes estimate   =    -234.72855599 Ry
     estimated scf accuracy    <       0.00011385 Ry

     iteration #  3     ecut=    80.00 Ry     beta=0.70
     Davidson diagonalization with overlap
     ethr =  1.98E-07,  avg # of iterations =  2.0

     total cpu time spent up to now is       47.4 secs

     total energy              =    -234.72850230 Ry
     Harris-Foulkes estimate   =    -234.72851238 Ry
     estimated scf accuracy    <       0.00002530 Ry

     iteration #  4     ecut=    80.00 Ry     beta=0.70
     Davidson diagonalization with overlap
     ethr =  5.75E-08,  avg # of iterations =  2.2

     total cpu time spent up to now is       48.0 secs

     total energy              =    -234.72849777 Ry
     Harris-Foulkes estimate   =    -234.72850372 Ry
     estimated scf accuracy    <       0.00000766 Ry

     iteration #  5     ecut=    80.00 Ry     beta=0.70
     Davidson diagonalization with overlap
     ethr =  1.74E-08,  avg # of iterations =  3.0

     total cpu time spent up to now is       48.7 secs

     total energy              =    -234.72850163 Ry
     Harris-Foulkes estimate   =    -234.72850252 Ry
     estimated scf accuracy    <       0.00000248 Ry

     iteration #  6     ecut=    80.00 Ry     beta=0.70
     Davidson diagonalization with overlap
     ethr =  5.64E-09,  avg # of iterations =  1.6

     total cpu time spent up to now is       49.3 secs

     total energy              =    -234.72850179 Ry
     Harris-Foulkes estimate   =    -234.72850176 Ry
     estimated scf accuracy    <       0.00000082 Ry

     iteration #  7     ecut=    80.00 Ry     beta=0.70
     Davidson diagonalization with overlap
     ethr =  1.86E-09,  avg # of iterations =  1.0

     total cpu time spent up to now is       49.8 secs

     total energy              =    -234.72850163 Ry
     Harris-Foulkes estimate   =    -234.72850180 Ry
     estimated scf accuracy    <       0.00000085 Ry

     iteration #  8     ecut=    80.00 Ry     beta=0.70
     Davidson diagonalization with overlap
     ethr =  1.86E-09,  avg # of iterations =  1.0

     total cpu time spent up to now is       50.3 secs

     total energy              =    -234.72850133 Ry
     Harris-Foulkes estimate   =    -234.72850164 Ry
     estimated scf accuracy    <       0.00000052 Ry

     iteration #  9     ecut=    80.00 Ry     beta=0.70
     Davidson diagonalization with overlap
     ethr =  1.19E-09,  avg # of iterations =  2.7

     total cpu time spent up to now is       51.0 secs

     total energy              =    -234.72850143 Ry
     Harris-Foulkes estimate   =    -234.72850143 Ry
     estimated scf accuracy    <          8.5E-09 Ry

     iteration # 10     ecut=    80.00 Ry     beta=0.70
     Davidson diagonalization with overlap
     ethr =  1.92E-11,  avg # of iterations =  4.5

     total cpu time spent up to now is       51.9 secs

     total energy              =    -234.72850143 Ry
     Harris-Foulkes estimate   =    -234.72850143 Ry
     estimated scf accuracy    <          3.9E-09 Ry

     iteration # 11     ecut=    80.00 Ry     beta=0.70
     Davidson diagonalization with overlap
     ethr =  8.88E-12,  avg # of iterations =  2.2

     total cpu time spent up to now is       52.6 secs

     total energy              =    -234.72850143 Ry
     Harris-Foulkes estimate   =    -234.72850143 Ry
     estimated scf accuracy    <          4.2E-10 Ry

     iteration # 12     ecut=    80.00 Ry     beta=0.70
     Davidson diagonalization with overlap
     ethr =  9.48E-13,  avg # of iterations =  3.5

     total cpu time spent up to now is       53.4 secs

     total energy              =    -234.72850143 Ry
     Harris-Foulkes estimate   =    -234.72850143 Ry
     estimated scf accuracy    <          1.8E-09 Ry

     iteration # 13     ecut=    80.00 Ry     beta=0.70
     Davidson diagonalization with overlap
     ethr =  9.48E-13,  avg # of iterations =  3.0

     total cpu time spent up to now is       54.3 secs

     End of self-consistent calculation

          k = 0.0000 0.0000 0.0000 ( 17773 PWs)   bands (ev):

   -18.1481 -13.5783 -13.5783 -13.4741 -13.4741 -13.4741 -11.1935 -10.6349
   -10.6349  -4.9261  -4.9261  -4.9261  -3.7684  -0.6737  -0.6737  -0.6737
     1.3501   1.3501   1.3501   1.4366   1.4366   1.4366

          k = 0.0000 0.0000 0.1251 ( 17713 PWs)   bands (ev):

   -18.1480 -13.5783 -13.5723 -13.4742 -13.4742 -13.4741 -11.1792 -10.6598
   -10.6347  -4.9253  -4.9249  -4.9249  -3.8833  -0.6615  -0.6615  -0.4225
     1.3338   1.3341   1.3341   1.4211   1.4211   1.4231

          k = 0.0000 0.0000 0.2503 ( 17732 PWs)   bands (ev):

   -18.1478 -13.5783 -13.5576 -13.4744 -13.4744 -13.4741 -11.1370 -10.7280
   -10.6342  -4.9235  -4.9220  -4.9220  -4.1146  -0.6309  -0.6309   0.1530
     1.2894   1.2894   1.2954   1.3897   1.3897   1.4344

          k = 0.0000 0.0000 0.3754 ( 17784 PWs)   bands (ev):

   -18.1476 -13.5782 -13.5427 -13.4747 -13.4747 -13.4741 -11.0726 -10.8186
   -10.6337  -4.9217  -4.9192  -4.9192  -4.3035  -0.5987  -0.5987   0.6341
     1.2379   1.2379   1.2581   1.3642   1.3642   1.6313

          k = 0.0000 0.0000-0.5006 ( 17704 PWs)   bands (ev):

   -18.1475 -13.5782 -13.5365 -13.4747 -13.4747 -13.4741 -11.0249 -10.8772
   -10.6335  -4.9210  -4.9180  -4.9180  -4.3731  -0.5849  -0.5849   0.7601
     1.2152   1.2152   1.2430   1.3548   1.3548   1.8502

          k = 0.0000 0.1251 0.1251 ( 17729 PWs)   bands (ev):

   -18.1480 -13.5753 -13.5692 -13.4743 -13.4742 -13.4742 -11.1653 -10.6710
   -10.6474  -4.9272  -4.9237  -4.9221  -3.9928  -0.6486  -0.4888  -0.3367
     1.2524   1.3201   1.3620   1.3951   1.4032   1.4549

          k = 0.0000 0.1251 0.2503 ( 17746 PWs)   bands (ev):

   -18.1477 -13.5741 -13.5555 -13.4745 -13.4744 -13.4742 -11.1243 -10.7320
   -10.6520  -4.9271  -4.9210  -4.9198  -4.2157  -0.6163  -0.4100   0.1811
     1.1562   1.2793   1.3538   1.3663   1.4037   1.4807

          k = 0.0000 0.1251 0.3754 ( 17764 PWs)   bands (ev):

   -18.1475 -13.5739 -13.5407 -13.4747 -13.4746 -13.4742 -11.0614 -10.8195
   -10.6522  -4.9250  -4.9195  -4.9182  -4.3998  -0.5823  -0.3701   0.6293
     1.1100   1.2292   1.3376   1.3466   1.4128   1.6607

          k = 0.0000 0.1251-0.5006 ( 17768 PWs)   bands (ev):

   -18.1474 -13.5739 -13.5345 -13.4748 -13.4747 -13.4742 -11.0142 -10.8773
   -10.6521  -4.9231  -4.9205  -4.9170  -4.4679  -0.5677  -0.3537   0.7288
     1.1079   1.2066   1.3273   1.3458   1.4045   1.8813

          k = 0.0000 0.2503 0.2503 ( 17755 PWs)   bands (ev):

   -18.1475 -13.5681 -13.5466 -13.4747 -13.4744 -13.4744 -11.0868 -10.7574
   -10.6865  -4.9302  -4.9200  -4.9184  -4.4257  -0.5797   0.0143   0.3330
     1.0263   1.2504   1.3132   1.3477   1.4866   1.5490

          k = 0.0000 0.2503 0.3754 ( 17786 PWs)   bands (ev):

   -18.1473 -13.5658 -13.5336 -13.4750 -13.4746 -13.4744 -11.0285 -10.8241
   -10.7009  -4.9303  -4.9230  -4.9159  -4.6022  -0.5409   0.1699   0.6126
     1.0151   1.2082   1.2719   1.3289   1.5719   1.7567

          k = 0.0000 0.2503-0.5006 ( 17784 PWs)   bands (ev):

   -18.1472 -13.5654 -13.5277 -13.4751 -13.4747 -13.4744 -10.9821 -10.8774
   -10.7034  -4.9281  -4.9266  -4.9148  -4.6681  -0.5241   0.2064   0.6496
     1.0678   1.1859   1.2590   1.3185   1.5817   1.9948

          k = 0.0000 0.3754 0.3754 ( 17759 PWs)   bands (ev):

   -18.1471 -13.5610 -13.5230 -13.4752 -13.4746 -13.4746 -10.9763 -10.8426
   -10.7551  -4.9336  -4.9285  -4.9135  -4.7744  -0.4967   0.5864   0.6569
     1.0066   1.1838   1.2072   1.2944   1.6842   2.0140

          k = 0.0000 0.3754-0.5006 ( 17780 PWs)   bands (ev):

   -18.1470 -13.5597 -13.5178 -13.4753 -13.4747 -13.4746 -10.9301 -10.8776
   -10.7751  -4.9331  -4.9327  -4.9125  -4.8391  -0.4773   0.5749   0.7840
     1.0703   1.1655   1.1877   1.2634   1.7154   2.2461

          k = 0.0000-0.5006-0.5006 ( 17780 PWs)   bands (ev):

   -18.1469 -13.5581 -13.5129 -13.4754 -13.4747 -13.4747 -10.8777 -10.8777
   -10.8357  -4.9352  -4.9352  -4.9116  -4.9035  -0.4569   0.5460   1.0754
     1.0754   1.1571   1.1571   1.1706   1.7658   2.4602

          k = 0.1251 0.1251 0.1251 ( 17722 PWs)   bands (ev):

   -18.1479 -13.5692 -13.5692 -13.4743 -13.4743 -13.4743 -11.1519 -10.6708
   -10.6708  -4.9265  -4.9265  -4.9188  -4.0976  -0.4755  -0.4755  -0.2556
     1.2387   1.2387   1.3317   1.4075   1.4518   1.4518

          k = 0.1251 0.1251 0.2503 ( 17763 PWs)   bands (ev):

   -18.1476 -13.5692 -13.5543 -13.4745 -13.4745 -13.4743 -11.1122 -10.7346
   -10.6702  -4.9277  -4.9250  -4.9164  -4.3134  -0.4420  -0.3535   0.2100
     1.1309   1.1898   1.3231   1.4193   1.4525   1.4889

          k = 0.1251 0.1251 0.3754 ( 17778 PWs)   bands (ev):

   -18.1474 -13.5691 -13.5393 -13.4747 -13.4747 -13.4743 -11.0510 -10.8203
   -10.6696  -4.9265  -4.9234  -4.9165  -4.4933  -0.4064  -0.3035   0.6265
     1.0459   1.2009   1.3246   1.4086   1.4511   1.6782

          k = 0.1251 0.1251-0.5006 ( 17778 PWs)   bands (ev):

   -18.1473 -13.5691 -13.5330 -13.4748 -13.4748 -13.4743 -11.0044 -10.8773
   -10.6694  -4.9252  -4.9228  -4.9174  -4.5602  -0.3910  -0.2841   0.7116
     1.0134   1.2449   1.2950   1.4031   1.4483   1.9059

          k = 0.1251 0.2503 0.2503 ( 17772 PWs)   bands (ev):

   -18.1474 -13.5618 -13.5466 -13.4747 -13.4745 -13.4745 -11.0762 -10.7570
   -10.7051  -4.9308  -4.9260  -4.9154  -4.5179  -0.3702   0.0303   0.3580
     1.0209   1.1360   1.3181   1.4456   1.5033   1.5464

          k = 0.1251 0.2503 0.3754 ( 17777 PWs)   bands (ev):

   -18.1472 -13.5599 -13.5333 -13.4750 -13.4747 -13.4745 -11.0201 -10.8243
   -10.7158  -4.9317  -4.9269  -4.9167  -4.6911  -0.3269   0.1932   0.6168
     0.9605   1.1230   1.3324   1.4341   1.5764   1.7604

          k = 0.1251 0.2503-0.5006 ( 17764 PWs)   bands (ev):

   -18.1471 -13.5595 -13.5272 -13.4751 -13.4748 -13.4745 -10.9748 -10.8773
   -10.7172  -4.9303  -4.9288  -4.9175  -4.7561  -0.3084   0.2324   0.6556
     0.9491   1.1503   1.3269   1.4252   1.5883   2.0103

          k = 0.1251 0.3754 0.3754 ( 17762 PWs)   bands (ev):

   -18.1470 -13.5546 -13.5230 -13.4752 -13.4747 -13.4747 -10.9709 -10.8422
   -10.7665  -4.9354  -4.9314  -4.9173  -4.8606  -0.2772   0.6002   0.6641
     0.9261   1.0754   1.3292   1.4160   1.6853   2.0216

          k = 0.1251 0.3754-0.5006 ( 17754 PWs)   bands (ev):

   -18.1469 -13.5533 -13.5178 -13.4753 -13.4748 -13.4747 -10.9267 -10.8773
   -10.7839  -4.9354  -4.9349  -4.9245  -4.9175  -0.2558   0.5933   0.7770
     0.9349   1.0975   1.3303   1.3919   1.7171   2.2638

          k = 0.1251-0.5006-0.5006 ( 17744 PWs)   bands (ev):

   -18.1468 -13.5516 -13.5129 -13.4754 -13.4748 -13.4748 -10.8773 -10.8773
   -10.8413  -4.9882  -4.9375  -4.9375  -4.9174  -0.2331   0.5680   0.9340
     0.9340   1.1714   1.3306   1.3306   1.7673   2.4855

          k = 0.2503 0.2503 0.2503 ( 17755 PWs)   bands (ev):

   -18.1472 -13.5466 -13.5466 -13.4747 -13.4747 -13.4747 -11.0448 -10.7562
   -10.7562  -4.9323  -4.9323  -4.9165  -4.7137   0.0718   0.0718   0.4564
     0.9929   0.9929   1.4163   1.5330   1.5330   1.5526

          k = 0.2503 0.2503 0.3754 ( 17740 PWs)   bands (ev):

   -18.1470 -13.5465 -13.5311 -13.4750 -13.4750 -13.4747 -10.9950 -10.8261
   -10.7555  -4.9353  -4.9338  -4.9208  -4.8818   0.1188   0.3158   0.6263
     0.8837   0.9986   1.4872   1.5307   1.6080   1.8075

          k = 0.2503 0.2503-0.5006 ( 17780 PWs)   bands (ev):

   -18.1469 -13.5465 -13.5246 -13.4751 -13.4751 -13.4747 -10.9528 -10.8768
   -10.7551  -4.9455  -4.9354  -4.9344  -4.9236   0.1406   0.3734   0.6589
     0.8415   1.0352   1.4798   1.5280   1.6270   2.0929

          k = 0.2503 0.3754 0.3754 ( 17775 PWs)   bands (ev):

   -18.1468 -13.5389 -13.5230 -13.4752 -13.4750 -13.4750 -10.9545 -10.8412
   -10.7977  -5.0472  -4.9398  -4.9381  -4.9265   0.2557   0.6330   0.6843
     0.8338   0.9527   1.5328   1.5678   1.6892   2.0748

          k = 0.2503 0.3754-0.5006 ( 17774 PWs)   bands (ev):

   -18.1467 -13.5377 -13.5176 -13.4753 -13.4751 -13.4750 -10.9163 -10.8764
   -10.8079  -5.1100  -4.9408  -4.9404  -4.9292   0.2885   0.6371   0.7578
     0.8064   1.0300   1.5334   1.5596   1.7223   2.3424

          k = 0.2503-0.5006-0.5006 ( 17764 PWs)   bands (ev):

   -18.1467 -13.5358 -13.5129 -13.4754 -13.4751 -13.4751 -10.8762 -10.8762
   -10.8548  -5.1726  -4.9430  -4.9430  -4.9314   0.3248   0.6216   0.8043
     0.8043   1.1732   1.5419   1.5419   1.7709   2.5808

          k = 0.3754 0.3754 0.3754 ( 17787 PWs)   bands (ev):

   -18.1466 -13.5230 -13.5230 -13.4752 -13.4752 -13.4752 -10.9271 -10.8402
   -10.8402  -5.2105  -4.9442  -4.9442  -4.9362   0.6633   0.7135   0.7135
     0.8619   0.8619   1.6659   1.6659   1.7081   2.3128

          k = 0.3754 0.3754-0.5006 ( 17762 PWs)   bands (ev):

   -18.1465 -13.5230 -13.5163 -13.4753 -13.4753 -13.4752 -10.8982 -10.8755
   -10.8398  -5.2728  -4.9463  -4.9460  -4.9407   0.6744   0.7323   0.7345
     0.8206   1.0452   1.6792   1.6817   1.7387   2.5720

          k = 0.3754-0.5006-0.5006 ( 17776 PWs)   bands (ev):

   -18.1465 -13.5197 -13.5129 -13.4754 -13.4753 -13.4753 -10.8751 -10.8751
   -10.8688  -5.3351  -4.9486  -4.9486  -4.9452   0.6759   0.7251   0.7251
     0.9216   1.1751   1.7101   1.7101   1.7745   2.8118

          k =-0.5006-0.5006-0.5006 ( 17784 PWs)   bands (ev):

   -18.1464 -13.5129 -13.5129 -13.4754 -13.4754 -13.4754 -10.8747 -10.8747
   -10.8747  -5.3974  -4.9509  -4.9509  -4.9509   0.6987   0.6987   0.6987
     1.1759   1.1759   1.7760   1.7760   1.7760   3.0498

     highest occupied level (ev):     3.0498

!    total energy              =    -234.72850143 Ry
     Harris-Foulkes estimate   =    -234.72850143 Ry
     estimated scf accuracy    <          8.2E-11 Ry

     The total energy is the sum of the following terms:

     one-electron contribution =     -98.91988019 Ry
     hartree contribution      =      63.35333147 Ry
     xc contribution           =     -36.01504558 Ry
     ewald contribution        =    -163.14690713 Ry

     convergence has been achieved in  13 iterations

     Forces acting on atoms (cartesian axes, Ry/au):

     atom    1 type  1   force =     0.00000000    0.00000000    0.00000000
     atom    2 type  2   force =     0.00000000    0.00000000    0.00000000
     atom    3 type  3   force =     0.00000000    0.00000000    0.00000000
     atom    4 type  3   force =     0.00000000    0.00000000    0.00000000
     atom    5 type  3   force =     0.00000000    0.00000000    0.00000000

     Total force =     0.000000     Total SCF correction =     0.000000


     Computing stress (Cartesian axis) and pressure

          total   stress  (Ry/bohr**3)                   (kbar)     P=   -0.78
  -0.00000530   0.00000000   0.00000000         -0.78      0.00      0.00
   0.00000000  -0.00000530   0.00000000          0.00     -0.78      0.00
   0.00000000   0.00000000  -0.00000530          0.00      0.00     -0.78


     number of scf cycles    =   4
     number of bfgs steps    =   3

     enthalpy old            =    -234.7284866025 Ry
     enthalpy new            =    -234.7285014298 Ry

     CASE: enthalpy_new < enthalpy_old

     new trust radius        =       0.0061478228 bohr
     new conv_thr            =            1.0E-10 Ry

     new unit-cell volume =   1461.56500 a.u.^3 (   216.58158 Ang^3 )
     density =      0.03834 g/cm^3

CELL_PARAMETERS (alat= 11.37048214)
   0.998068842   0.000000000   0.000000000
   0.000000000   0.998068842   0.000000000
   0.000000000   0.000000000   0.998068842

ATOMIC_POSITIONS (crystal)
Cs       0.000000000   0.000000000   0.000000000
Pb       0.500000000   0.500000000   0.500000000
Br       0.000000000   0.500000000   0.500000000
Br       0.500000000   0.000000000   0.500000000
Br       0.500000000   0.500000000   0.000000000



     Writing output data file pwscf.save
     NEW-OLD atomic charge density approx. for the potential
     extrapolated charge   43.89392, renormalised to   44.00000

     total cpu time spent up to now is       60.7 secs

     per-process dynamical memory:    65.7 Mb

     Self-consistent Calculation

     iteration #  1     ecut=    80.00 Ry     beta=0.70
     Davidson diagonalization with overlap
     ethr =  1.00E-06,  avg # of iterations =  3.0

     total cpu time spent up to now is       61.4 secs

     total energy              =    -234.72810764 Ry
     Harris-Foulkes estimate   =    -234.92092344 Ry
     estimated scf accuracy    <       0.00021186 Ry

     iteration #  2     ecut=    80.00 Ry     beta=0.70
     Davidson diagonalization with overlap
     ethr =  4.81E-07,  avg # of iterations =  3.7

     total cpu time spent up to now is       62.3 secs

     total energy              =    -234.72852417 Ry
     Harris-Foulkes estimate   =    -234.72864679 Ry
     estimated scf accuracy    <       0.00027392 Ry

     iteration #  3     ecut=    80.00 Ry     beta=0.70
     Davidson diagonalization with overlap
     ethr =  4.81E-07,  avg # of iterations =  2.0

     total cpu time spent up to now is       62.9 secs

     total energy              =    -234.72851954 Ry
     Harris-Foulkes estimate   =    -234.72854078 Ry
     estimated scf accuracy    <       0.00006270 Ry

     iteration #  4     ecut=    80.00 Ry     beta=0.70
     Davidson diagonalization with overlap
     ethr =  1.42E-07,  avg # of iterations =  2.7

     total cpu time spent up to now is       63.5 secs

     total energy              =    -234.72851129 Ry
     Harris-Foulkes estimate   =    -234.72852306 Ry
     estimated scf accuracy    <       0.00002413 Ry

     iteration #  5     ecut=    80.00 Ry     beta=0.70
     Davidson diagonalization with overlap
     ethr =  5.48E-08,  avg # of iterations =  3.0

     total cpu time spent up to now is       64.2 secs

     total energy              =    -234.72851483 Ry
     Harris-Foulkes estimate   =    -234.72851568 Ry
     estimated scf accuracy    <       0.00000206 Ry

     iteration #  6     ecut=    80.00 Ry     beta=0.70
     Davidson diagonalization with overlap
     ethr =  4.67E-09,  avg # of iterations =  2.5

     total cpu time spent up to now is       64.8 secs

     total energy              =    -234.72851464 Ry
     Harris-Foulkes estimate   =    -234.72851502 Ry
     estimated scf accuracy    <       0.00000054 Ry

     iteration #  7     ecut=    80.00 Ry     beta=0.70
     Davidson diagonalization with overlap
     ethr =  1.22E-09,  avg # of iterations =  3.2

     total cpu time spent up to now is       65.6 secs

     total energy              =    -234.72851483 Ry
     Harris-Foulkes estimate   =    -234.72851489 Ry
     estimated scf accuracy    <       0.00000008 Ry

     iteration #  8     ecut=    80.00 Ry     beta=0.70
     Davidson diagonalization with overlap
     ethr =  1.76E-10,  avg # of iterations =  4.0

     total cpu time spent up to now is       66.5 secs

     total energy              =    -234.72851486 Ry
     Harris-Foulkes estimate   =    -234.72851486 Ry
     estimated scf accuracy    <          7.9E-09 Ry

     iteration #  9     ecut=    80.00 Ry     beta=0.70
     Davidson diagonalization with overlap
     ethr =  1.80E-11,  avg # of iterations =  3.6

     total cpu time spent up to now is       67.2 secs

     total energy              =    -234.72851486 Ry
     Harris-Foulkes estimate   =    -234.72851486 Ry
     estimated scf accuracy    <          3.5E-09 Ry

     iteration # 10     ecut=    80.00 Ry     beta=0.70
     Davidson diagonalization with overlap
     ethr =  7.88E-12,  avg # of iterations =  2.9

     total cpu time spent up to now is       67.9 secs

     total energy              =    -234.72851486 Ry
     Harris-Foulkes estimate   =    -234.72851486 Ry
     estimated scf accuracy    <          6.1E-10 Ry

     iteration # 11     ecut=    80.00 Ry     beta=0.70
     Davidson diagonalization with overlap
     ethr =  1.38E-12,  avg # of iterations =  3.1

     total cpu time spent up to now is       68.7 secs

     End of self-consistent calculation

          k = 0.0000 0.0000 0.0000 ( 17773 PWs)   bands (ev):

   -18.1256 -13.5544 -13.5544 -13.4486 -13.4486 -13.4486 -11.1807 -10.6172
   -10.6172  -4.9039  -4.9039  -4.9039  -3.7416  -0.6624  -0.6624  -0.6624
     1.3664   1.3664   1.3664   1.4539   1.4539   1.4539

          k = 0.0000 0.0000 0.1252 ( 17713 PWs)   bands (ev):

   -18.1255 -13.5544 -13.5483 -13.4487 -13.4487 -13.4486 -11.1663 -10.6424
   -10.6170  -4.9032  -4.9027  -4.9027  -3.8578  -0.6501  -0.6501  -0.4097
     1.3500   1.3504   1.3504   1.4383   1.4383   1.4404

          k = 0.0000 0.0000 0.2505 ( 17732 PWs)   bands (ev):

   -18.1253 -13.5544 -13.5334 -13.4489 -13.4489 -13.4486 -11.1238 -10.7113
   -10.6165  -4.9013  -4.8998  -4.8998  -4.0911  -0.6194  -0.6194   0.1681
     1.3055   1.3055   1.3114   1.4066   1.4066   1.4526

          k = 0.0000 0.0000 0.3757 ( 17784 PWs)   bands (ev):

   -18.1250 -13.5544 -13.5183 -13.4491 -13.4491 -13.4486 -11.0588 -10.8029
   -10.6160  -4.8995  -4.8969  -4.8969  -4.2813  -0.5872  -0.5872   0.6490
     1.2539   1.2539   1.2738   1.3809   1.3809   1.6528

          k = 0.0000 0.0000-0.5010 ( 17704 PWs)   bands (ev):

   -18.1249 -13.5544 -13.5120 -13.4492 -13.4492 -13.4486 -11.0107 -10.8621
   -10.6158  -4.8987  -4.8957  -4.8957  -4.3513  -0.5734  -0.5734   0.7744
     1.2311   1.2311   1.2586   1.3713   1.3713   1.8739

          k = 0.0000 0.1252 0.1252 ( 17729 PWs)   bands (ev):

   -18.1254 -13.5514 -13.5452 -13.4488 -13.4487 -13.4487 -11.1523 -10.6537
   -10.6299  -4.9050  -4.9016  -4.8999  -3.9683  -0.6372  -0.4768  -0.3232
     1.2683   1.3363   1.3785   1.4123   1.4202   1.4722

          k = 0.0000 0.1252 0.2505 ( 17746 PWs)   bands (ev):

   -18.1252 -13.5502 -13.5313 -13.4490 -13.4489 -13.4487 -11.1110 -10.7154
   -10.6345  -4.9049  -4.8988  -4.8975  -4.1931  -0.6048  -0.3975   0.1962
     1.1719   1.2953   1.3704   1.3831   1.4211   1.4985

          k = 0.0000 0.1252 0.3757 ( 17764 PWs)   bands (ev):

   -18.1249 -13.5500 -13.5163 -13.4492 -13.4491 -13.4487 -11.0477 -10.8038
   -10.6347  -4.9028  -4.8972  -4.8960  -4.3784  -0.5707  -0.3575   0.6440
     1.1255   1.2452   1.3540   1.3631   1.4296   1.6821

          k = 0.0000 0.1252-0.5010 ( 17768 PWs)   bands (ev):

   -18.1248 -13.5500 -13.5100 -13.4493 -13.4492 -13.4487 -10.9999 -10.8622
   -10.6346  -4.9008  -4.8983  -4.8948  -4.4469  -0.5561  -0.3410   0.7429
     1.1233   1.2224   1.3436   1.3624   1.4211   1.9052

          k = 0.0000 0.2505 0.2505 ( 17755 PWs)   bands (ev):

   -18.1249 -13.5441 -13.5222 -13.4492 -13.4489 -13.4489 -11.0733 -10.7410
   -10.6694  -4.9080  -4.8977  -4.8962  -4.4047  -0.5681   0.0281   0.3485
     1.0417   1.2662   1.3298   1.3644   1.5056   1.5664

          k = 0.0000 0.2505 0.3757 ( 17786 PWs)   bands (ev):

   -18.1247 -13.5418 -13.5091 -13.4494 -13.4491 -13.4489 -11.0145 -10.8084
   -10.6839  -4.9082  -4.9008  -4.8936  -4.5823  -0.5292   0.1845   0.6267
     1.0307   1.2239   1.2881   1.3458   1.5894   1.7790

          k = 0.0000 0.2505-0.5010 ( 17784 PWs)   bands (ev):

   -18.1246 -13.5413 -13.5031 -13.4495 -13.4492 -13.4489 -10.9677 -10.8624
   -10.6864  -4.9059  -4.9045  -4.8925  -4.6486  -0.5123   0.2211   0.6632
     1.0832   1.2016   1.2750   1.3354   1.5990   2.0195

          k = 0.0000 0.3757 0.3757 ( 17759 PWs)   bands (ev):

   -18.1245 -13.5369 -13.4983 -13.4497 -13.4491 -13.4491 -10.9620 -10.8272
   -10.7387  -4.9115  -4.9064  -4.8912  -4.7555  -0.4847   0.5998   0.6727
     1.0223   1.1994   1.2229   1.3115   1.7021   2.0386

          k = 0.0000 0.3757-0.5010 ( 17780 PWs)   bands (ev):

   -18.1244 -13.5356 -13.4930 -13.4498 -13.4492 -13.4491 -10.9153 -10.8626
   -10.7588  -4.9110  -4.9106  -4.8902  -4.8206  -0.4653   0.5881   0.8001
     1.0858   1.1810   1.2033   1.2807   1.7334   2.2725

          k = 0.0000-0.5010-0.5010 ( 17780 PWs)   bands (ev):

   -18.1243 -13.5340 -13.4880 -13.4499 -13.4492 -13.4492 -10.8626 -10.8626
   -10.8199  -4.9131  -4.9131  -4.8893  -4.8854  -0.4447   0.5591   1.0910
     1.0910   1.1726   1.1726   1.1890   1.7841   2.4880

          k = 0.1252 0.1252 0.1252 ( 17722 PWs)   bands (ev):

   -18.1253 -13.5452 -13.5452 -13.4488 -13.4488 -13.4488 -11.1388 -10.6535
   -10.6535  -4.9044  -4.9044  -4.8966  -4.0742  -0.4634  -0.4634  -0.2414
     1.2546   1.2546   1.3489   1.4241   1.4691   1.4691

          k = 0.1252 0.1252 0.2505 ( 17763 PWs)   bands (ev):

   -18.1251 -13.5452 -13.5301 -13.4490 -13.4490 -13.4488 -11.0988 -10.7180
   -10.6529  -4.9056  -4.9028  -4.8941  -4.2916  -0.4298  -0.3407   0.2253
[...]
   Cartesian axes

     site n.     atom                  positions (alat units)
         1           Cs  tau(   1) = (   0.0000000   0.0000000   0.0000000  )
         2           Pb  tau(   2) = (   0.4990344   0.4990344   0.4990344  )
         3           Br  tau(   3) = (   0.0000000   0.4990344   0.4990344  )
         4           Br  tau(   4) = (   0.4990344   0.0000000   0.4990344  )
         5           Br  tau(   5) = (   0.4990344   0.4990344   0.0000000  )

     number of k points=    35
                       cart. coord. in units 2pi/alat
        k(    1) = (   0.0000000   0.0000000   0.0000000), wk =   0.0039062
        k(    2) = (   0.0000000   0.0000000   0.1252419), wk =   0.0234375
        k(    3) = (   0.0000000   0.0000000   0.2504837), wk =   0.0234375
        k(    4) = (   0.0000000   0.0000000   0.3757256), wk =   0.0234375
        k(    5) = (   0.0000000   0.0000000  -0.5009674), wk =   0.0117188
        k(    6) = (   0.0000000   0.1252419   0.1252419), wk =   0.0468750
        k(    7) = (   0.0000000   0.1252419   0.2504837), wk =   0.0937500
        k(    8) = (   0.0000000   0.1252419   0.3757256), wk =   0.0937500
        k(    9) = (   0.0000000   0.1252419  -0.5009674), wk =   0.0468750
        k(   10) = (   0.0000000   0.2504837   0.2504837), wk =   0.0468750
        k(   11) = (   0.0000000   0.2504837   0.3757256), wk =   0.0937500
        k(   12) = (   0.0000000   0.2504837  -0.5009674), wk =   0.0468750
        k(   13) = (   0.0000000   0.3757256   0.3757256), wk =   0.0468750
        k(   14) = (   0.0000000   0.3757256  -0.5009674), wk =   0.0468750
        k(   15) = (   0.0000000  -0.5009674  -0.5009674), wk =   0.0117188
        k(   16) = (   0.1252419   0.1252419   0.1252419), wk =   0.0312500
        k(   17) = (   0.1252419   0.1252419   0.2504837), wk =   0.0937500
        k(   18) = (   0.1252419   0.1252419   0.3757256), wk =   0.0937500
        k(   19) = (   0.1252419   0.1252419  -0.5009674), wk =   0.0468750
        k(   20) = (   0.1252419   0.2504837   0.2504837), wk =   0.0937500
        k(   21) = (   0.1252419   0.2504837   0.3757256), wk =   0.1875000
        k(   22) = (   0.1252419   0.2504837  -0.5009674), wk =   0.0937500
        k(   23) = (   0.1252419   0.3757256   0.3757256), wk =   0.0937500
        k(   24) = (   0.1252419   0.3757256  -0.5009674), wk =   0.0937500
        k(   25) = (   0.1252419  -0.5009674  -0.5009674), wk =   0.0234375
        k(   26) = (   0.2504837   0.2504837   0.2504837), wk =   0.0312500
        k(   27) = (   0.2504837   0.2504837   0.3757256), wk =   0.0937500
        k(   28) = (   0.2504837   0.2504837  -0.5009674), wk =   0.0468750
        k(   29) = (   0.2504837   0.3757256   0.3757256), wk =   0.0937500
        k(   30) = (   0.2504837   0.3757256  -0.5009674), wk =   0.0937500
        k(   31) = (   0.2504837  -0.5009674  -0.5009674), wk =   0.0234375
        k(   32) = (   0.3757256   0.3757256   0.3757256), wk =   0.0312500
        k(   33) = (   0.3757256   0.3757256  -0.5009674), wk =   0.0468750
        k(   34) = (   0.3757256  -0.5009674  -0.5009674), wk =   0.0234375
        k(   35) = (  -0.5009674  -0.5009674  -0.5009674), wk =   0.0039062

     Dense  grid:   141097 G-vectors     FFT dimensions: (  72,  72,  72)

     Estimated max dynamical RAM per process >       5.53MB

     Estimated total allocated dynamical RAM >     796.52MB

     Initial potential from superposition of free atoms

     starting charge   43.95964, renormalised to   44.00000
     Starting wfc are   26 randomized atomic wfcs

     Writing output data file pwscf.save

     total cpu time spent up to now is       74.8 secs

     per-process dynamical memory:    65.7 Mb

     Self-consistent Calculation

     iteration #  1     ecut=    80.00 Ry     beta=0.70
     Davidson diagonalization with overlap
     ethr =  1.00E-06,  avg # of iterations =  7.1

     total cpu time spent up to now is       76.2 secs

     total energy              =    -234.67420016 Ry
     Harris-Foulkes estimate   =    -234.77887921 Ry
     estimated scf accuracy    <       0.15374275 Ry

     iteration #  2     ecut=    80.00 Ry     beta=0.70
     Davidson diagonalization with overlap
     ethr =  3.49E-04,  avg # of iterations =  2.5

     total cpu time spent up to now is       76.9 secs

     total energy              =    -234.71668616 Ry
     Harris-Foulkes estimate   =    -234.74461719 Ry
     estimated scf accuracy    <       0.05098826 Ry

     iteration #  3     ecut=    80.00 Ry     beta=0.70
     Davidson diagonalization with overlap
     ethr =  1.16E-04,  avg # of iterations =  3.0

     total cpu time spent up to now is       77.6 secs

     total energy              =    -234.72831051 Ry
     Harris-Foulkes estimate   =    -234.72813759 Ry
     estimated scf accuracy    <       0.00055942 Ry

     iteration #  4     ecut=    80.00 Ry     beta=0.70
     Davidson diagonalization with overlap
     ethr =  1.27E-06,  avg # of iterations =  3.3

     total cpu time spent up to now is       78.4 secs

     total energy              =    -234.72850241 Ry
     Harris-Foulkes estimate   =    -234.72850333 Ry
     estimated scf accuracy    <       0.00002624 Ry

     iteration #  5     ecut=    80.00 Ry     beta=0.70
     Davidson diagonalization with overlap
     ethr =  5.96E-08,  avg # of iterations =  3.7

     total cpu time spent up to now is       79.2 secs

     total energy              =    -234.72851370 Ry
     Harris-Foulkes estimate   =    -234.72851191 Ry
     estimated scf accuracy    <       0.00000238 Ry

     iteration #  6     ecut=    80.00 Ry     beta=0.70
     Davidson diagonalization with overlap
     ethr =  5.42E-09,  avg # of iterations =  4.1

     total cpu time spent up to now is       80.1 secs

     total energy              =    -234.72851471 Ry
     Harris-Foulkes estimate   =    -234.72851464 Ry
     estimated scf accuracy    <       0.00000007 Ry

     iteration #  7     ecut=    80.00 Ry     beta=0.70
     Davidson diagonalization with overlap
     ethr =  1.57E-10,  avg # of iterations =  4.9

     total cpu time spent up to now is       81.1 secs

     total energy              =    -234.72851479 Ry
     Harris-Foulkes estimate   =    -234.72851479 Ry
     estimated scf accuracy    <       0.00000001 Ry

     iteration #  8     ecut=    80.00 Ry     beta=0.70
     Davidson diagonalization with overlap
     ethr =  2.80E-11,  avg # of iterations =  4.2

     total cpu time spent up to now is       82.0 secs

     total energy              =    -234.72851480 Ry
     Harris-Foulkes estimate   =    -234.72851480 Ry
     estimated scf accuracy    <          1.1E-09 Ry

     iteration #  9     ecut=    80.00 Ry     beta=0.70
     Davidson diagonalization with overlap
     ethr =  2.47E-12,  avg # of iterations =  4.2

     total cpu time spent up to now is       83.0 secs

     End of self-consistent calculation

          k = 0.0000 0.0000 0.0000 ( 17557 PWs)   bands (ev):

   -18.1256 -13.5544 -13.5544 -13.4485 -13.4485 -13.4485 -11.1808 -10.6172
   -10.6172  -4.9039  -4.9039  -4.9039  -3.7416  -0.6624  -0.6624  -0.6624
     1.3664   1.3664   1.3664   1.4539   1.4539   1.4539

          k = 0.0000 0.0000 0.1252 ( 17625 PWs)   bands (ev):

   -18.1255 -13.5544 -13.5483 -13.4486 -13.4486 -13.4485 -11.1663 -10.6424
   -10.6170  -4.9032  -4.9027  -4.9027  -3.8578  -0.6501  -0.6501  -0.4097
     1.3500   1.3504   1.3504   1.4383   1.4383   1.4404

          k = 0.0000 0.0000 0.2505 ( 17628 PWs)   bands (ev):

   -18.1253 -13.5544 -13.5334 -13.4489 -13.4489 -13.4485 -11.1238 -10.7113
   -10.6165  -4.9013  -4.8998  -4.8998  -4.0911  -0.6194  -0.6194   0.1681
     1.3055   1.3055   1.3114   1.4066   1.4066   1.4525

          k = 0.0000 0.0000 0.3757 ( 17656 PWs)   bands (ev):

   -18.1250 -13.5544 -13.5183 -13.4491 -13.4491 -13.4485 -11.0588 -10.8029
   -10.6160  -4.8995  -4.8969  -4.8969  -4.2812  -0.5872  -0.5872   0.6490
     1.2539   1.2539   1.2738   1.3808   1.3808   1.6528

          k = 0.0000 0.0000-0.5010 ( 17640 PWs)   bands (ev):

   -18.1249 -13.5543 -13.5120 -13.4492 -13.4492 -13.4485 -11.0107 -10.8621
   -10.6158  -4.8987  -4.8957  -4.8957  -4.3513  -0.5734  -0.5734   0.7744
     1.2311   1.2311   1.2586   1.3713   1.3713   1.8739

          k = 0.0000 0.1252 0.1252 ( 17597 PWs)   bands (ev):

   -18.1254 -13.5513 -13.5452 -13.4487 -13.4486 -13.4486 -11.1523 -10.6537
   -10.6299  -4.9050  -4.9016  -4.8999  -3.9683  -0.6372  -0.4768  -0.3232
     1.2683   1.3363   1.3785   1.4122   1.4202   1.4722

          k = 0.0000 0.1252 0.2505 ( 17629 PWs)   bands (ev):

   -18.1252 -13.5502 -13.5313 -13.4490 -13.4489 -13.4486 -11.1110 -10.7154
   -10.6345  -4.9049  -4.8988  -4.8975  -4.1931  -0.6048  -0.3975   0.1962
     1.1719   1.2953   1.3703   1.3831   1.4211   1.4985

          k = 0.0000 0.1252 0.3757 ( 17669 PWs)   bands (ev):

   -18.1249 -13.5500 -13.5163 -13.4492 -13.4491 -13.4486 -11.0477 -10.8038
   -10.6347  -4.9028  -4.8972  -4.8960  -4.3784  -0.5707  -0.3575   0.6440
     1.1255   1.2451   1.3540   1.3631   1.4296   1.6821

          k = 0.0000 0.1252-0.5010 ( 17680 PWs)   bands (ev):

   -18.1248 -13.5500 -13.5100 -13.4493 -13.4492 -13.4486 -11.0000 -10.8622
   -10.6346  -4.9008  -4.8983  -4.8948  -4.4469  -0.5561  -0.3410   0.7429
     1.1233   1.2224   1.3436   1.3624   1.4211   1.9052

          k = 0.0000 0.2505 0.2505 ( 17659 PWs)   bands (ev):

   -18.1249 -13.5441 -13.5222 -13.4492 -13.4489 -13.4489 -11.0733 -10.7410
   -10.6694  -4.9080  -4.8977  -4.8962  -4.4047  -0.5681   0.0281   0.3485
     1.0417   1.2662   1.3297   1.3644   1.5056   1.5664

          k = 0.0000 0.2505 0.3757 ( 17683 PWs)   bands (ev):

   -18.1247 -13.5418 -13.5090 -13.4494 -13.4491 -13.4489 -11.0145 -10.8084
   -10.6839  -4.9082  -4.9008  -4.8936  -4.5823  -0.5292   0.1845   0.6267
     1.0307   1.2239   1.2881   1.3457   1.5894   1.7790

          k = 0.0000 0.2505-0.5010 ( 17688 PWs)   bands (ev):

   -18.1246 -13.5413 -13.5031 -13.4495 -13.4492 -13.4489 -10.9677 -10.8624
   -10.6864  -4.9059  -4.9045  -4.8925  -4.6486  -0.5123   0.2211   0.6632
     1.0832   1.2016   1.2750   1.3354   1.5990   2.0195

          k = 0.0000 0.3757 0.3757 ( 17643 PWs)   bands (ev):

   -18.1245 -13.5369 -13.4982 -13.4496 -13.4491 -13.4491 -10.9620 -10.8272
   -10.7387  -4.9115  -4.9064  -4.8912  -4.7555  -0.4847   0.5998   0.6727
     1.0223   1.1994   1.2229   1.3115   1.7021   2.0386

          k = 0.0000 0.3757-0.5010 ( 17680 PWs)   bands (ev):

   -18.1244 -13.5356 -13.4930 -13.4497 -13.4492 -13.4491 -10.9153 -10.8626
   -10.7588  -4.9110  -4.9106  -4.8902  -4.8206  -0.4653   0.5881   0.8001
     1.0858   1.1810   1.2033   1.2807   1.7334   2.2725

          k = 0.0000-0.5010-0.5010 ( 17612 PWs)   bands (ev):

   -18.1243 -13.5339 -13.4880 -13.4498 -13.4492 -13.4492 -10.8627 -10.8627
   -10.8199  -4.9131  -4.9131  -4.8893  -4.8854  -0.4447   0.5591   1.0910
     1.0910   1.1725   1.1725   1.1890   1.7841   2.4880

          k = 0.1252 0.1252 0.1252 ( 17656 PWs)   bands (ev):

   -18.1253 -13.5452 -13.5452 -13.4487 -13.4487 -13.4487 -11.1388 -10.6535
   -10.6535  -4.9044  -4.9044  -4.8966  -4.0741  -0.4634  -0.4634  -0.2414
     1.2546   1.2546   1.3489   1.4241   1.4691   1.4691

          k = 0.1252 0.1252 0.2505 ( 17665 PWs)   bands (ev):

   -18.1251 -13.5451 -13.5301 -13.4490 -13.4490 -13.4487 -11.0989 -10.7180
   -10.6529  -4.9056  -4.9028  -4.8941  -4.2916  -0.4298  -0.3407   0.2253
     1.1463   1.2057   1.3404   1.4360   1.4695   1.5067

          k = 0.1252 0.1252 0.3757 ( 17644 PWs)   bands (ev):

   -18.1248 -13.5451 -13.5148 -13.4492 -13.4492 -13.4487 -11.0372 -10.8046
   -10.6523  -4.9044  -4.9012  -4.8942  -4.4726  -0.3942  -0.2905   0.6410
     1.0610   1.2169   1.3414   1.4253   1.4679   1.6998

          k = 0.1252 0.1252-0.5010 ( 17656 PWs)   bands (ev):

   -18.1247 -13.5451 -13.5084 -13.4493 -13.4493 -13.4487 -10.9901 -10.8622
   -10.6521  -4.9030  -4.9006  -4.8951  -4.5399  -0.3787  -0.2710   0.7255
     1.0284   1.2611   1.3112   1.4198   1.4650   1.9300

          k = 0.1252 0.2505 0.2505 ( 17667 PWs)   bands (ev):

   -18.1248 -13.5377 -13.5222 -13.4492 -13.4490 -13.4490 -11.0627 -10.7407
   -10.6882  -4.9087  -4.9038  -4.8931  -4.4976  -0.3577   0.0441   0.3733
     1.0362   1.1516   1.3359   1.4625   1.5217   1.5638

          k = 0.1252 0.2505 0.3757 ( 17674 PWs)   bands (ev):

   -18.1246 -13.5357 -13.5087 -13.4494 -13.4492 -13.4489 -11.0061 -10.8086
   -10.6990  -4.9095  -4.9048  -4.8944  -4.6719  -0.3142   0.2079   0.6309
     0.9756   1.1387   1.3492   1.4511   1.5939   1.7827

          k = 0.1252 0.2505-0.5010 ( 17650 PWs)   bands (ev):

   -18.1245 -13.5354 -13.5025 -13.4495 -13.4493 -13.4489 -10.9603 -10.8622
   -10.7004  -4.9081  -4.9067  -4.8952  -4.7372  -0.2956   0.2473   0.6693
     0.9640   1.1663   1.3433   1.4421   1.6057   2.0352

          k = 0.1252 0.3757 0.3757 ( 17676 PWs)   bands (ev):

   -18.1244 -13.5304 -13.4982 -13.4496 -13.4492 -13.4492 -10.9566 -10.8268
   -10.7502  -4.9134  -4.9093  -4.8950  -4.8425  -0.2643   0.6137   0.6798
     0.9412   1.0912   1.3458   1.4330   1.7032   2.0464

          k = 0.1252 0.3757-0.5010 ( 17668 PWs)   bands (ev):

   -18.1243 -13.5291 -13.4929 -13.4497 -13.4493 -13.4492 -10.9119 -10.8622
   -10.7678  -4.9134  -4.9129  -4.9066  -4.8952  -0.2428   0.6066   0.7928
     0.9498   1.1139   1.3466   1.4089   1.7352   2.2903

          k = 0.1252-0.5010-0.5010 ( 17636 PWs)   bands (ev):

   -18.1243 -13.5273 -13.4880 -13.4498 -13.4493 -13.4493 -10.8622 -10.8622
   -10.8255  -4.9708  -4.9154  -4.9154  -4.8952  -0.2199   0.5812   0.9489
     0.9489   1.1898   1.3469   1.3469   1.7856   2.5135

          k = 0.2505 0.2505 0.2505 ( 17665 PWs)   bands (ev):

   -18.1246 -13.5222 -13.5222 -13.4492 -13.4492 -13.4492 -11.0310 -10.7399
   -10.7399  -4.9102  -4.9102  -4.8942  -4.6948   0.0858   0.0858   0.4714
     1.0080   1.0080   1.4369   1.5504   1.5504   1.5698

          k = 0.2505 0.2505 0.3757 ( 17647 PWs)   bands (ev):

   -18.1244 -13.5222 -13.5065 -13.4494 -13.4494 -13.4492 -10.9808 -10.8105
   -10.7391  -4.9133  -4.9117  -4.8986  -4.8639   0.1330   0.3309   0.6403
     0.8984   1.0140   1.5050   1.5480   1.6255   1.8307

          k = 0.2505 0.2505-0.5010 ( 17656 PWs)   bands (ev):

   -18.1243 -13.5222 -13.4999 -13.4495 -13.4495 -13.4492 -10.9382 -10.8618
   -10.7387  -4.9279  -4.9134  -4.9123  -4.9014   0.1549   0.3888   0.6726
     0.8561   1.0510   1.4967   1.5453   1.6446   2.1184

          k = 0.2505 0.3757 0.3757 ( 17669 PWs)   bands (ev):

   -18.1242 -13.5144 -13.4982 -13.4496 -13.4494 -13.4494 -10.9401 -10.8258
   -10.7817  -5.0303  -4.9178  -4.9161  -4.9043   0.2706   0.6467   0.6999
     0.8485   0.9685   1.5502   1.5853   1.7071   2.1002

          k = 0.2505 0.3757-0.5010 ( 17666 PWs)   bands (ev):

   -18.1241 -13.5132 -13.4927 -13.4497 -13.4495 -13.4494 -10.9015 -10.8613
   -10.7920  -5.0935  -4.9188  -4.9184  -4.9071   0.3036   0.6508   0.7729
     0.8209   1.0471   1.5505   1.5771   1.7403   2.3695

          k = 0.2505-0.5010-0.5010 ( 17660 PWs)   bands (ev):

   -18.1241 -13.5112 -13.4880 -13.4498 -13.4495 -13.4495 -10.8611 -10.8611
   -10.8394  -5.1565  -4.9211  -4.9211  -4.9093   0.3401   0.6352   0.8189
     0.8189   1.1917   1.5591   1.5591   1.7892   2.6094

          k = 0.3757 0.3757 0.3757 ( 17658 PWs)   bands (ev):

   -18.1240 -13.4982 -13.4982 -13.4496 -13.4496 -13.4496 -10.9124 -10.8248
   -10.8248  -5.1947  -4.9223  -4.9223  -4.9142   0.6773   0.7285   0.7285
     0.8782   0.8782   1.6838   1.6838   1.7261   2.3398

          k = 0.3757 0.3757-0.5010 ( 17656 PWs)   bands (ev):

   -18.1240 -13.4982 -13.4914 -13.4497 -13.4497 -13.4496 -10.8833 -10.8604
   -10.8244  -5.2574  -4.9244  -4.9241  -4.9187   0.6884   0.7468   0.7489
     0.8376   1.0630   1.6971   1.6995   1.7569   2.6005

          k = 0.3757-0.5010-0.5010 ( 17684 PWs)   bands (ev):

   -18.1239 -13.4949 -13.4880 -13.4498 -13.4497 -13.4497 -10.8600 -10.8600
   -10.8536  -5.3201  -4.9267  -4.9267  -4.9233   0.6900   0.7395   0.7395
     0.9391   1.1936   1.7281   1.7281   1.7928   2.8418

          k =-0.5010-0.5010-0.5010 ( 17784 PWs)   bands (ev):

   -18.1238 -13.4880 -13.4880 -13.4498 -13.4498 -13.4498 -10.8596 -10.8596
   -10.8596  -5.3828  -4.9290  -4.9290  -4.9290   0.7130   0.7130   0.7130
     1.1943   1.1943   1.7943   1.7943   1.7943   3.0816

     highest occupied level (ev):     3.0816

!    total energy              =    -234.72851480 Ry
     Harris-Foulkes estimate   =    -234.72851480 Ry
     estimated scf accuracy    <          2.0E-11 Ry

     The total energy is the sum of the following terms:

     one-electron contribution =     -98.71869899 Ry
     hartree contribution      =      63.28611684 Ry
     xc contribution           =     -36.01790017 Ry
     ewald contribution        =    -163.27803248 Ry

     convergence has been achieved in   9 iterations

     Forces acting on atoms (cartesian axes, Ry/au):

     atom    1 type  1   force =     0.00000000    0.00000000    0.00000000
     atom    2 type  2   force =     0.00000000    0.00000000    0.00000000
     atom    3 type  3   force =     0.00000000    0.00000000    0.00000000
     atom    4 type  3   force =     0.00000000    0.00000000    0.00000000
     atom    5 type  3   force =     0.00000000    0.00000000    0.00000000

     Total force =     0.000000     Total SCF correction =     0.000000


     Computing stress (Cartesian axis) and pressure

          total   stress  (Ry/bohr**3)                   (kbar)     P=   -0.34
  -0.00000230   0.00000000   0.00000000         -0.34      0.00      0.00
   0.00000000  -0.00000230   0.00000000          0.00     -0.34      0.00
   0.00000000   0.00000000  -0.00000230          0.00      0.00     -0.34


     Writing output data file pwscf.save
 
     init_run     :      0.63s CPU      1.19s WALL (       2 calls)
     electrons    :     38.39s CPU     48.85s WALL (       6 calls)
     update_pot   :      1.53s CPU      2.72s WALL (       4 calls)
     forces       :      0.61s CPU      0.63s WALL (       6 calls)
     stress       :      0.98s CPU      1.02s WALL (       6 calls)

     Called by init_run:
     wfcinit      :      0.32s CPU      0.55s WALL (       2 calls)
     potinit      :      0.11s CPU      0.11s WALL (       2 calls)

     Called by electrons:
     c_bands      :     28.49s CPU     33.33s WALL (      64 calls)
     sum_band     :      5.60s CPU      7.63s WALL (      64 calls)
     v_of_rho     :      1.16s CPU      1.45s WALL (      67 calls)
     mix_rho      :      0.10s CPU      0.11s WALL (      64 calls)

     Called by c_bands:
     init_us_2    :      0.40s CPU      0.46s WALL (    1278 calls)
     cegterg      :     24.16s CPU     27.19s WALL (     576 calls)

     Called by sum_band:

     Called by *egterg:
     h_psi        :     13.21s CPU     13.86s WALL (    2318 calls)
     g_psi        :      0.07s CPU      0.08s WALL (    1724 calls)
     cdiaghg      :      6.96s CPU      8.71s WALL (    2237 calls)

     Called by h_psi:
     h_psi:pot    :     13.10s CPU     13.75s WALL (    2318 calls)
     h_psi:calbec :      0.96s CPU      1.03s WALL (    2318 calls)
     vloc_psi     :     11.47s CPU     12.02s WALL (    2318 calls)
     add_vuspsi   :      0.65s CPU      0.68s WALL (    2318 calls)

     General routines
     calbec       :      1.07s CPU      1.15s WALL (    2588 calls)
     fft          :      1.42s CPU      2.09s WALL (     789 calls)
     fftw         :     12.31s CPU     12.86s WALL (   86838 calls)
 
     Parallel routines
     fft_scatter  :      7.02s CPU      7.75s WALL (   87627 calls)
 
     PWSCF        :  0m46.55s CPU     1m44.80s WALL

 
   This run was terminated on:  11:27:31  27Jan2020            

=------------------------------------------------------------------------------=
   JOB DONE.
=------------------------------------------------------------------------------=
